Al    ONCVPSP-3.3.0  r_core=   1.76802   1.76802   1.70587
     13.0000      3.0000      170801    zatom,zion,pspd
     8      11   2     4   600     0    pspcod,pspxc,lmax,lloc,mmax,r2well
  5.99000000  5.00000000  0.00000000    rchrg fchrg qchrg
     2     2     2     0     0    nproj
     1     1           extension_switch
   0                         5.1266666015240E+00  7.2829148183275E-01
     1  0.0000000000000E+00 -1.5381641238488E-09  3.4042234239862E-09
     2  1.0000000000000E-02  2.2298172446944E-02 -7.7006378477057E-03
     3  2.0000000000000E-02  4.4482909183018E-02 -1.5144395299697E-02
     4  3.0000000000000E-02  6.6442672063425E-02 -2.2078637797496E-02
     5  4.0000000000000E-02  8.8069689886289E-02 -2.8259160003038E-02
     6  5.0000000000000E-02  1.0926177178924E-01 -3.3454245155018E-02
     7  6.0000000000000E-02  1.2992403766565E-01 -3.7448540576092E-02
     8  7.0000000000000E-02  1.4997053977293E-01 -4.0046692103817E-02
     9  8.0000000000000E-02  1.6932575124370E-01 -4.1076683622508E-02
    10  9.0000000000000E-02  1.8792589909272E-01 -4.0392832039130E-02
    11  1.0000000000000E-01  2.0572012151321E-01 -3.7878392916368E-02
    12  1.1000000000000E-01  2.2267143174415E-01 -3.3447737482711E-02
    13  1.2000000000000E-01  2.3875747353178E-01 -2.7048067806175E-02
    14  1.3000000000000E-01  2.5397105616461E-01 -1.8660643461351E-02
    15  1.4000000000000E-01  2.6832046019242E-01 -8.3014999475593E-03
    16  1.5000000000000E-01  2.8182950820054E-01  3.9783536664809E-03
    17  1.6000000000000E-01  2.9453739835806E-01  1.8093262990110E-02
    18  1.7000000000000E-01  3.0649830184362E-01  3.3923780076714E-02
    19  1.8000000000000E-01  3.1778072863038E-01  5.1318028861144E-02
    20  1.9000000000000E-01  3.2846666943357E-01  7.0093567070309E-02
    21  2.0000000000000E-01  3.3865052484437E-01  9.0039720283195E-02
    22  2.1000000000000E-01  3.4843783574803E-01  1.1092035701495E-01
    23  2.2000000000000E-01  3.5794383200797E-01  1.3247706731915E-01
    24  2.3000000000000E-01  3.6729181905156E-01  1.5443270153056E-01
    25  2.4000000000000E-01  3.7661142437990E-01  1.7649522049182E-01
    26  2.5000000000000E-01  3.8603672810876E-01  1.9836180399496E-01
    27  2.6000000000000E-01  3.9570430340247E-01  2.1972316028919E-01
    28  2.7000000000000E-01  4.0575119406015E-01  2.4026797641443E-01
    29  2.8000000000000E-01  4.1631285753630E-01  2.5968744686160E-01
    30  2.9000000000000E-01  4.2752110230746E-01  2.7767981666760E-01
    31  3.0000000000000E-01  4.3950204872658E-01  2.9395487454859E-01
    32  3.1000000000000E-01  4.5237414233019E-01  3.0823833206711E-01
    33  3.2000000000000E-01  4.6624624798333E-01  3.2027602611556E-01
    34  3.3000000000000E-01  4.8121585226974E-01  3.2983788416303E-01
    35  3.4000000000000E-01  4.9736740017241E-01  3.3672159473025E-01
    36  3.5000000000000E-01  5.1477079035988E-01  3.4075592938533E-01
    37  3.6000000000000E-01  5.3348005131995E-01  3.4180366714425E-01
    38  3.7000000000000E-01  5.5353221819137E-01  3.3976407745075E-01
    39  3.8000000000000E-01  5.7494642746815E-01  3.3457492383221E-01
    40  3.9000000000000E-01  5.9772324382682E-01  3.2621395679802E-01
    41  4.0000000000000E-01  6.2184423019216E-01  3.1469987148243E-01
    42  4.1000000000000E-01  6.4727176885606E-01  3.0009271283521E-01
    43  4.2000000000000E-01  6.7394913804053E-01  2.8249371873598E-01
    44  4.3000000000000E-01  7.0180084479689E-01  2.6204459914646E-01
    45  4.4000000000000E-01  7.3073321160662E-01  2.3892625721191E-01
    46  4.5000000000000E-01  7.6063521054315E-01  2.1335696597572E-01
    47  4.6000000000000E-01  7.9137953541691E-01  1.8559002196736E-01
    48  4.7000000000000E-01  8.2282389900485E-01  1.5591090426410E-01
    49  4.8000000000000E-01  8.5481253930731E-01  1.2463397460474E-01
    50  4.9000000000000E-01  8.8717791582231E-01  9.2098760655672E-02
    51  5.0000000000000E-01  9.1974257412308E-01  5.8665870500567E-02
    52  5.1000000000000E-01  9.5232115460385E-01  2.4712591766724E-02
    53  5.2000000000000E-01  9.8472251916034E-01 -9.3717665694649E-03
    54  5.3000000000000E-01  1.0167519678205E+00 -4.3190727799160E-02
    55  5.4000000000000E-01  1.0482135159663E+00 -7.6345631594939E-02
    56  5.5000000000000E-01  1.0789122018067E+00 -1.0844068154828E-01
    57  5.6000000000000E-01  1.1086563931955E+00 -1.3908798781644E-01
    58  5.7000000000000E-01  1.1372600627340E+00 -1.6791253625477E-01
    59  5.8000000000000E-01  1.1645450003778E+00 -1.9455701603579E-01
    60  5.9000000000000E-01  1.1903429334613E+00 -2.1868643932392E-01
    61  6.0000000000000E-01  1.2144975251626E+00 -2.3999248904299E-01
    62  6.1000000000000E-01  1.2368662239505E+00 -2.5819753415768E-01
    63  6.2000000000000E-01  1.2573219384384E+00 -2.7305825607631E-01
    64  6.3000000000000E-01  1.2757545143359E+00 -2.8436883481536E-01
    65  6.4000000000000E-01  1.2920719927617E+00 -2.9196364927815E-01
    66  6.5000000000000E-01  1.3062016320603E+00 -2.9571945238857E-01
    67  6.6000000000000E-01  1.3180906784096E+00 -2.9555698879273E-01
    68  6.7000000000000E-01  1.3277068738500E+00 -2.9144203025915E-01
    69  6.8000000000000E-01  1.3350386938944E+00 -2.8338581172361E-01
    70  6.9000000000000E-01  1.3400953105333E+00 -2.7144485903099E-01
    71  7.0000000000000E-01  1.3429062801781E+00 -2.5572020767686E-01
    72  7.1000000000000E-01  1.3435209598307E+00 -2.3635602015691E-01
    73  7.2000000000000E-01  1.3420076585079E+00 -2.1353761780351E-01
    74  7.3000000000000E-01  1.3384525346034E+00 -1.8748895108375E-01
    75  7.4000000000000E-01  1.3329582533982E+00 -1.5846954013608E-01
    76  7.5000000000000E-01  1.3256424222902E+00 -1.2677092475514E-01
    77  7.6000000000000E-01  1.3166358244560E+00 -9.2712669982936E-02
    78  7.7000000000000E-01  1.3060804745235E+00 -5.6637979794960E-02
    79  7.8000000000000E-01  1.2941275224213E+00 -1.8908977084386E-02
    80  7.9000000000000E-01  1.2809350337930E+00  2.0098286948663E-02
    81  8.0000000000000E-01  1.2666656772299E+00  5.9999026786755E-02
    82  8.1000000000000E-01  1.2514843500371E+00  1.0040504953192E-01
    83  8.2000000000000E-01  1.2355557752875E+00  1.4093014207655E-01
    84  8.3000000000000E-01  1.2190421035256E+00  1.8119544448482E-01
    85  8.4000000000000E-01  1.2021005526307E+00  2.2083473524532E-01
    86  8.5000000000000E-01  1.1848811190580E+00  2.5949955474522E-01
    87  8.6000000000000E-01  1.1675243929178E+00  2.9686409500805E-01
    88  8.7000000000000E-01  1.1501595081614E+00  3.3262978641643E-01
    89  8.8000000000000E-01  1.1329022575112E+00  3.6652951577602E-01
    90  8.9000000000000E-01  1.1158533997324E+00  3.9833141462876E-01
    91  9.0000000000000E-01  1.0990971844119E+00  4.2784216213293E-01
    92  9.1000000000000E-01  1.0827001166228E+00  4.5490975303307E-01
    93  9.2000000000000E-01  1.0667099807403E+00  4.7942568816348E-01
    94  9.3000000000000E-01  1.0511551392750E+00  5.0132655247840E-01
    95  9.4000000000000E-01  1.0360441189571E+00  5.2059495368468E-01
    96  9.5000000000000E-01  1.0213654924706E+00  5.3725980305164E-01
    97  9.6000000000000E-01  1.0070880602373E+00  5.5139592886884E-01
    98  9.7000000000000E-01  9.9316133263333E-01  5.6312302192239E-01
    99  9.8000000000000E-01  9.7951630886690E-01  5.7260392159077E-01
   100  9.9000000000000E-01  9.6606654465365E-01  5.8004226023020E-01
   101  1.0000000000000E+00  9.5270949682457E-01  5.8567949239750E-01
   102  1.0100000000000E+00  9.3932812908549E-01  5.8979134413916E-01
   103  1.0200000000000E+00  9.2579275943506E-01  5.9268372580278E-01
   104  1.0300000000000E+00  9.1196312619449E-01  5.9468815970051E-01
   105  1.0400000000000E+00  8.9769064650869E-01  5.9615678080544E-01
   106  1.0500000000000E+00  8.8282083814228E-01  5.9745697538367E-01
   107  1.0600000000000E+00  8.6719587289584E-01  5.9896572799069E-01
   108  1.0700000000000E+00  8.5065722784939E-01  6.0106375194311E-01
   109  1.0800000000000E+00  8.3304839888507E-01  6.0412948225166E-01
   110  1.0900000000000E+00  8.1421763974583E-01  6.0853301263267E-01
   111  1.1000000000000E+00  7.9402068901031E-01  6.1463006014040E-01
   112  1.1100000000000E+00  7.7232344710785E-01  6.2275604150694E-01
   113  1.1200000000000E+00  7.4900456569290E-01  6.3322034482325E-01
   114  1.1300000000000E+00  7.2395791256167E-01  6.4630087825406E-01
   115  1.1400000000000E+00  6.9709487604402E-01  6.6223897579701E-01
   116  1.1500000000000E+00  6.6834647497646E-01  6.8123473524765E-01
   117  1.1600000000000E+00  6.3766524222801E-01  7.0344285937367E-01
   118  1.1700000000000E+00  6.0502685266244E-01  7.2896906481925E-01
   119  1.1800000000000E+00  5.7043146850894E-01  7.5786711860923E-01
   120  1.1900000000000E+00  5.3390477965341E-01  7.9013655202486E-01
   121  1.2000000000000E+00  4.9549871975414E-01  8.2572109408307E-01
   122  1.2100000000000E+00  4.5529184219009E-01  8.6450785994919E-01
   123  1.2200000000000E+00  4.1338934495257E-01  9.0632731827270E-01
   124  1.2300000000000E+00  3.6992273832410E-01  9.5095405092149E-01
   125  1.2400000000000E+00  3.2504915305236E-01  9.9810831000779E-01
   126  1.2500000000000E+00  2.7895029054729E-01  1.0474583686126E+00
   127  1.2600000000000E+00  2.3183102373011E-01  1.0986236458497E+00
   128  1.2700000000000E+00  1.8391766010116E-01  1.1511785803913E+00
   129  1.2800000000000E+00  1.3545588154003E-01  1.2046572200314E+00
   130  1.2900000000000E+00  8.6708383752734E-02  1.2585584762243E+00
   131  1.3000000000000E+00  3.7952239279930E-02  1.3123519903188E+00
   132  1.3100000000000E+00 -1.0523988889395E-02  1.3654845512623E+00
   133  1.3200000000000E+00 -5.8423348505621E-02  1.4173869878109E+00
   134  1.3300000000000E+00 -1.0544378059787E-01  1.4674814608235E+00
   135  1.3400000000000E+00 -1.5128154552545E-01  1.5151890714788E+00
   136  1.3500000000000E+00 -1.9563475092681E-01  1.5599376929069E+00
   137  1.3600000000000E+00 -2.3820694154818E-01  1.6011699363471E+00
   138  1.3700000000000E+00 -2.7871070630588E-01  1.6383511586693E+00
   139  1.3800000000000E+00 -3.1687125963639E-01  1.6709773790052E+00
   140  1.3900000000000E+00 -3.5242995082567E-01  1.6985830873004E+00
   141  1.4000000000000E+00 -3.8514766464148E-01  1.7207487635370E+00
   142  1.4100000000000E+00 -4.1480805648605E-01  1.7371080453049E+00
   143  1.4200000000000E+00 -4.4122058420435E-01  1.7473534970432E+00
   144  1.4300000000000E+00 -4.6422326722695E-01  1.7512415840739E+00
   145  1.4400000000000E+00 -4.8368497506388E-01  1.7485926552865E+00
   146  1.4500000000000E+00 -4.9950732001903E-01  1.7392911066976E+00
   147  1.4600000000000E+00 -5.1162608640198E-01  1.7232864344387E+00
   148  1.4700000000000E+00 -5.2001219001121E-01  1.7005927937717E+00
   149  1.4800000000000E+00 -5.2467218501006E-01  1.6712880266776E+00
   150  1.4900000000000E+00 -5.2564829732238E-01  1.6355124560063E+00
   151  1.5000000000000E+00 -5.2301804053196E-01  1.5934673571423E+00
   152  1.5100000000000E+00 -5.1689341461424E-01  1.5454133600719E+00
   153  1.5200000000000E+00 -5.0741974050214E-01  1.4916686975733E+00
   154  1.5300000000000E+00 -4.9477415065497E-01  1.4326073901210E+00
   155  1.5400000000000E+00 -4.7916377873492E-01  1.3686572639599E+00
   156  1.5500000000000E+00 -4.6082366532247E-01  1.3002977443112E+00
   157  1.5600000000000E+00 -4.4001441701804E-01  1.2280572745789E+00
   158  1.5700000000000E+00 -4.1701962543584E-01  1.1525103183214E+00
   159  1.5800000000000E+00 -3.9214307269354E-01  1.0742736899839E+00
   160  1.5900000000000E+00 -3.6570573546790E-01  9.9400233433093E-01
   161  1.6000000000000E+00 -3.3804259542976E-01  9.1238422650957E-01
   162  1.6100000000000E+00 -3.0949928905302E-01  8.3013466348193E-01
   163  1.6200000000000E+00 -2.8042859517773E-01  7.4798968977871E-01
   164  1.6300000000000E+00 -2.5118681040970E-01  6.6669896239796E-01
   165  1.6400000000000E+00 -2.2213001632364E-01  5.8701794026774E-01
   166  1.6500000000000E+00 -1.9361029819217E-01  5.0969968730946E-01
   167  1.6600000000000E+00 -1.6597193279918E-01  4.3548630427023E-01
   168  1.6700000000000E+00 -1.3954760740192E-01  3.6510023428301E-01
   169  1.6800000000000E+00 -1.1465469955091E-01  2.9923553614165E-01
   170  1.6900000000000E+00 -9.1591677961180E-02  2.3854932392460E-01
   171  1.7000000000000E+00 -7.0634661078482E-02  1.8365350020811E-01
   172  1.7100000000000E+00 -5.2042475717596E-02  1.3512846746257E-01
   173  1.7200000000000E+00 -3.6025527251227E-02  9.3442729284123E-02
   174  1.7300000000000E+00 -2.2716238633800E-02  5.8876737780609E-02
   175  1.7400000000000E+00 -1.2343702689476E-02  3.1976236824967E-02
   176  1.7500000000000E+00 -5.2549257247920E-03  1.3606898471831E-02
   177  1.7600000000000E+00 -1.3486746528686E-03  3.4878299392004E-03
   178  1.7700000000000E+00  1.8191734837493E-04 -4.7589108894249E-04
   179  1.7800000000000E+00  3.1554347355403E-04 -8.1934699873812E-04
   180  1.7900000000000E+00 -1.6475527977965E-05  4.2749871793682E-05
   181  1.8000000000000E+00 -1.1068972904928E-04  2.8710682599320E-04
   182  1.8100000000000E+00 -1.0004683476510E-05  2.5944863489708E-05
   183  1.8200000000000E+00  2.0131033222696E-05 -5.2271950563783E-05
   184  1.8300000000000E+00  6.6027198420816E-06 -1.7142489191500E-05
   185  1.8400000000000E+00 -5.5243746035650E-08  1.5657613306058E-07
   186  1.8500000000000E+00 -3.3559400282302E-08  9.5116669326585E-08
   187  1.8600000000000E+00  0.0000000000000E+00  0.0000000000000E+00
   188  1.8700000000000E+00  0.0000000000000E+00  0.0000000000000E+00
   189  1.8800000000000E+00  0.0000000000000E+00  0.0000000000000E+00
   190  1.8900000000000E+00  0.0000000000000E+00  0.0000000000000E+00
   191  1.9000000000000E+00  0.0000000000000E+00  0.0000000000000E+00
   192  1.9100000000000E+00  0.0000000000000E+00  0.0000000000000E+00
   193  1.9200000000000E+00  0.0000000000000E+00  0.0000000000000E+00
   194  1.9300000000000E+00  0.0000000000000E+00  0.0000000000000E+00
   195  1.9400000000000E+00  0.0000000000000E+00  0.0000000000000E+00
   196  1.9500000000000E+00  0.0000000000000E+00  0.0000000000000E+00
   197  1.9600000000000E+00  0.0000000000000E+00  0.0000000000000E+00
   198  1.9700000000000E+00  0.0000000000000E+00  0.0000000000000E+00
   199  1.9800000000000E+00  0.0000000000000E+00  0.0000000000000E+00
   200  1.9900000000000E+00  0.0000000000000E+00  0.0000000000000E+00
   201  2.0000000000000E+00  0.0000000000000E+00  0.0000000000000E+00
   202  2.0100000000000E+00  0.0000000000000E+00  0.0000000000000E+00
   203  2.0200000000000E+00  0.0000000000000E+00  0.0000000000000E+00
   204  2.0300000000000E+00  0.0000000000000E+00  0.0000000000000E+00
   205  2.0400000000000E+00  0.0000000000000E+00  0.0000000000000E+00
   206  2.0500000000000E+00  0.0000000000000E+00  0.0000000000000E+00
   207  2.0600000000000E+00  0.0000000000000E+00  0.0000000000000E+00
   208  2.0700000000000E+00  0.0000000000000E+00  0.0000000000000E+00
   209  2.0800000000000E+00  0.0000000000000E+00  0.0000000000000E+00
   210  2.0900000000000E+00  0.0000000000000E+00  0.0000000000000E+00
   211  2.1000000000000E+00  0.0000000000000E+00  0.0000000000000E+00
   212  2.1100000000000E+00  0.0000000000000E+00  0.0000000000000E+00
   213  2.1200000000000E+00  0.0000000000000E+00  0.0000000000000E+00
   214  2.1300000000000E+00  0.0000000000000E+00  0.0000000000000E+00
   215  2.1400000000000E+00  0.0000000000000E+00  0.0000000000000E+00
   216  2.1500000000000E+00  0.0000000000000E+00  0.0000000000000E+00
   217  2.1600000000000E+00  0.0000000000000E+00  0.0000000000000E+00
   218  2.1700000000000E+00  0.0000000000000E+00  0.0000000000000E+00
   219  2.1800000000000E+00  0.0000000000000E+00  0.0000000000000E+00
   220  2.1900000000000E+00  0.0000000000000E+00  0.0000000000000E+00
   221  2.2000000000000E+00  0.0000000000000E+00  0.0000000000000E+00
   222  2.2100000000000E+00  0.0000000000000E+00  0.0000000000000E+00
   223  2.2200000000000E+00  0.0000000000000E+00  0.0000000000000E+00
   224  2.2300000000000E+00  0.0000000000000E+00  0.0000000000000E+00
   225  2.2400000000000E+00  0.0000000000000E+00  0.0000000000000E+00
   226  2.2500000000000E+00  0.0000000000000E+00  0.0000000000000E+00
   227  2.2600000000000E+00  0.0000000000000E+00  0.0000000000000E+00
   228  2.2700000000000E+00  0.0000000000000E+00  0.0000000000000E+00
   229  2.2800000000000E+00  0.0000000000000E+00  0.0000000000000E+00
   230  2.2900000000000E+00  0.0000000000000E+00  0.0000000000000E+00
   231  2.3000000000000E+00  0.0000000000000E+00  0.0000000000000E+00
   232  2.3100000000000E+00  0.0000000000000E+00  0.0000000000000E+00
   233  2.3200000000000E+00  0.0000000000000E+00  0.0000000000000E+00
   234  2.3300000000000E+00  0.0000000000000E+00  0.0000000000000E+00
   235  2.3400000000000E+00  0.0000000000000E+00  0.0000000000000E+00
   236  2.3500000000000E+00  0.0000000000000E+00  0.0000000000000E+00
   237  2.3600000000000E+00  0.0000000000000E+00  0.0000000000000E+00
   238  2.3700000000000E+00  0.0000000000000E+00  0.0000000000000E+00
   239  2.3800000000000E+00  0.0000000000000E+00  0.0000000000000E+00
   240  2.3900000000000E+00  0.0000000000000E+00  0.0000000000000E+00
   241  2.4000000000000E+00  0.0000000000000E+00  0.0000000000000E+00
   242  2.4100000000000E+00  0.0000000000000E+00  0.0000000000000E+00
   243  2.4200000000000E+00  0.0000000000000E+00  0.0000000000000E+00
   244  2.4300000000000E+00  0.0000000000000E+00  0.0000000000000E+00
   245  2.4400000000000E+00  0.0000000000000E+00  0.0000000000000E+00
   246  2.4500000000000E+00  0.0000000000000E+00  0.0000000000000E+00
   247  2.4600000000000E+00  0.0000000000000E+00  0.0000000000000E+00
   248  2.4700000000000E+00  0.0000000000000E+00  0.0000000000000E+00
   249  2.4800000000000E+00  0.0000000000000E+00  0.0000000000000E+00
   250  2.4900000000000E+00  0.0000000000000E+00  0.0000000000000E+00
   251  2.5000000000000E+00  0.0000000000000E+00  0.0000000000000E+00
   252  2.5100000000000E+00  0.0000000000000E+00  0.0000000000000E+00
   253  2.5200000000000E+00  0.0000000000000E+00  0.0000000000000E+00
   254  2.5300000000000E+00  0.0000000000000E+00  0.0000000000000E+00
   255  2.5400000000000E+00  0.0000000000000E+00  0.0000000000000E+00
   256  2.5500000000000E+00  0.0000000000000E+00  0.0000000000000E+00
   257  2.5600000000000E+00  0.0000000000000E+00  0.0000000000000E+00
   258  2.5700000000000E+00  0.0000000000000E+00  0.0000000000000E+00
   259  2.5800000000000E+00  0.0000000000000E+00  0.0000000000000E+00
   260  2.5900000000000E+00  0.0000000000000E+00  0.0000000000000E+00
   261  2.6000000000000E+00  0.0000000000000E+00  0.0000000000000E+00
   262  2.6100000000000E+00  0.0000000000000E+00  0.0000000000000E+00
   263  2.6200000000000E+00  0.0000000000000E+00  0.0000000000000E+00
   264  2.6300000000000E+00  0.0000000000000E+00  0.0000000000000E+00
   265  2.6400000000000E+00  0.0000000000000E+00  0.0000000000000E+00
   266  2.6500000000000E+00  0.0000000000000E+00  0.0000000000000E+00
   267  2.6600000000000E+00  0.0000000000000E+00  0.0000000000000E+00
   268  2.6700000000000E+00  0.0000000000000E+00  0.0000000000000E+00
   269  2.6800000000000E+00  0.0000000000000E+00  0.0000000000000E+00
   270  2.6900000000000E+00  0.0000000000000E+00  0.0000000000000E+00
   271  2.7000000000000E+00  0.0000000000000E+00  0.0000000000000E+00
   272  2.7100000000000E+00  0.0000000000000E+00  0.0000000000000E+00
   273  2.7200000000000E+00  0.0000000000000E+00  0.0000000000000E+00
   274  2.7300000000000E+00  0.0000000000000E+00  0.0000000000000E+00
   275  2.7400000000000E+00  0.0000000000000E+00  0.0000000000000E+00
   276  2.7500000000000E+00  0.0000000000000E+00  0.0000000000000E+00
   277  2.7600000000000E+00  0.0000000000000E+00  0.0000000000000E+00
   278  2.7700000000000E+00  0.0000000000000E+00  0.0000000000000E+00
   279  2.7800000000000E+00  0.0000000000000E+00  0.0000000000000E+00
   280  2.7900000000000E+00  0.0000000000000E+00  0.0000000000000E+00
   281  2.8000000000000E+00  0.0000000000000E+00  0.0000000000000E+00
   282  2.8100000000000E+00  0.0000000000000E+00  0.0000000000000E+00
   283  2.8200000000000E+00  0.0000000000000E+00  0.0000000000000E+00
   284  2.8300000000000E+00  0.0000000000000E+00  0.0000000000000E+00
   285  2.8400000000000E+00  0.0000000000000E+00  0.0000000000000E+00
   286  2.8500000000000E+00  0.0000000000000E+00  0.0000000000000E+00
   287  2.8600000000000E+00  0.0000000000000E+00  0.0000000000000E+00
   288  2.8700000000000E+00  0.0000000000000E+00  0.0000000000000E+00
   289  2.8800000000000E+00  0.0000000000000E+00  0.0000000000000E+00
   290  2.8900000000000E+00  0.0000000000000E+00  0.0000000000000E+00
   291  2.9000000000000E+00  0.0000000000000E+00  0.0000000000000E+00
   292  2.9100000000000E+00  0.0000000000000E+00  0.0000000000000E+00
   293  2.9200000000000E+00  0.0000000000000E+00  0.0000000000000E+00
   294  2.9300000000000E+00  0.0000000000000E+00  0.0000000000000E+00
   295  2.9400000000000E+00  0.0000000000000E+00  0.0000000000000E+00
   296  2.9500000000000E+00  0.0000000000000E+00  0.0000000000000E+00
   297  2.9600000000000E+00  0.0000000000000E+00  0.0000000000000E+00
   298  2.9700000000000E+00  0.0000000000000E+00  0.0000000000000E+00
   299  2.9800000000000E+00  0.0000000000000E+00  0.0000000000000E+00
   300  2.9900000000000E+00  0.0000000000000E+00  0.0000000000000E+00
   301  3.0000000000000E+00  0.0000000000000E+00  0.0000000000000E+00
   302  3.0100000000000E+00  0.0000000000000E+00  0.0000000000000E+00
   303  3.0200000000000E+00  0.0000000000000E+00  0.0000000000000E+00
   304  3.0300000000000E+00  0.0000000000000E+00  0.0000000000000E+00
   305  3.0400000000000E+00  0.0000000000000E+00  0.0000000000000E+00
   306  3.0500000000000E+00  0.0000000000000E+00  0.0000000000000E+00
   307  3.0600000000000E+00  0.0000000000000E+00  0.0000000000000E+00
   308  3.0700000000000E+00  0.0000000000000E+00  0.0000000000000E+00
   309  3.0800000000000E+00  0.0000000000000E+00  0.0000000000000E+00
   310  3.0900000000000E+00  0.0000000000000E+00  0.0000000000000E+00
   311  3.1000000000000E+00  0.0000000000000E+00  0.0000000000000E+00
   312  3.1100000000000E+00  0.0000000000000E+00  0.0000000000000E+00
   313  3.1200000000000E+00  0.0000000000000E+00  0.0000000000000E+00
   314  3.1300000000000E+00  0.0000000000000E+00  0.0000000000000E+00
   315  3.1400000000000E+00  0.0000000000000E+00  0.0000000000000E+00
   316  3.1500000000000E+00  0.0000000000000E+00  0.0000000000000E+00
   317  3.1600000000000E+00  0.0000000000000E+00  0.0000000000000E+00
   318  3.1700000000000E+00  0.0000000000000E+00  0.0000000000000E+00
   319  3.1800000000000E+00  0.0000000000000E+00  0.0000000000000E+00
   320  3.1900000000000E+00  0.0000000000000E+00  0.0000000000000E+00
   321  3.2000000000000E+00  0.0000000000000E+00  0.0000000000000E+00
   322  3.2100000000000E+00  0.0000000000000E+00  0.0000000000000E+00
   323  3.2200000000000E+00  0.0000000000000E+00  0.0000000000000E+00
   324  3.2300000000000E+00  0.0000000000000E+00  0.0000000000000E+00
   325  3.2400000000000E+00  0.0000000000000E+00  0.0000000000000E+00
   326  3.2500000000000E+00  0.0000000000000E+00  0.0000000000000E+00
   327  3.2600000000000E+00  0.0000000000000E+00  0.0000000000000E+00
   328  3.2700000000000E+00  0.0000000000000E+00  0.0000000000000E+00
   329  3.2800000000000E+00  0.0000000000000E+00  0.0000000000000E+00
   330  3.2900000000000E+00  0.0000000000000E+00  0.0000000000000E+00
   331  3.3000000000000E+00  0.0000000000000E+00  0.0000000000000E+00
   332  3.3100000000000E+00  0.0000000000000E+00  0.0000000000000E+00
   333  3.3200000000000E+00  0.0000000000000E+00  0.0000000000000E+00
   334  3.3300000000000E+00  0.0000000000000E+00  0.0000000000000E+00
   335  3.3400000000000E+00  0.0000000000000E+00  0.0000000000000E+00
   336  3.3500000000000E+00  0.0000000000000E+00  0.0000000000000E+00
   337  3.3600000000000E+00  0.0000000000000E+00  0.0000000000000E+00
   338  3.3700000000000E+00  0.0000000000000E+00  0.0000000000000E+00
   339  3.3800000000000E+00  0.0000000000000E+00  0.0000000000000E+00
   340  3.3900000000000E+00  0.0000000000000E+00  0.0000000000000E+00
   341  3.4000000000000E+00  0.0000000000000E+00  0.0000000000000E+00
   342  3.4100000000000E+00  0.0000000000000E+00  0.0000000000000E+00
   343  3.4200000000000E+00  0.0000000000000E+00  0.0000000000000E+00
   344  3.4300000000000E+00  0.0000000000000E+00  0.0000000000000E+00
   345  3.4400000000000E+00  0.0000000000000E+00  0.0000000000000E+00
   346  3.4500000000000E+00  0.0000000000000E+00  0.0000000000000E+00
   347  3.4600000000000E+00  0.0000000000000E+00  0.0000000000000E+00
   348  3.4700000000000E+00  0.0000000000000E+00  0.0000000000000E+00
   349  3.4800000000000E+00  0.0000000000000E+00  0.0000000000000E+00
   350  3.4900000000000E+00  0.0000000000000E+00  0.0000000000000E+00
   351  3.5000000000000E+00  0.0000000000000E+00  0.0000000000000E+00
   352  3.5100000000000E+00  0.0000000000000E+00  0.0000000000000E+00
   353  3.5200000000000E+00  0.0000000000000E+00  0.0000000000000E+00
   354  3.5300000000000E+00  0.0000000000000E+00  0.0000000000000E+00
   355  3.5400000000000E+00  0.0000000000000E+00  0.0000000000000E+00
   356  3.5500000000000E+00  0.0000000000000E+00  0.0000000000000E+00
   357  3.5600000000000E+00  0.0000000000000E+00  0.0000000000000E+00
   358  3.5700000000000E+00  0.0000000000000E+00  0.0000000000000E+00
   359  3.5800000000000E+00  0.0000000000000E+00  0.0000000000000E+00
   360  3.5900000000000E+00  0.0000000000000E+00  0.0000000000000E+00
   361  3.6000000000000E+00  0.0000000000000E+00  0.0000000000000E+00
   362  3.6100000000000E+00  0.0000000000000E+00  0.0000000000000E+00
   363  3.6200000000000E+00  0.0000000000000E+00  0.0000000000000E+00
   364  3.6300000000000E+00  0.0000000000000E+00  0.0000000000000E+00
   365  3.6400000000000E+00  0.0000000000000E+00  0.0000000000000E+00
   366  3.6500000000000E+00  0.0000000000000E+00  0.0000000000000E+00
   367  3.6600000000000E+00  0.0000000000000E+00  0.0000000000000E+00
   368  3.6700000000000E+00  0.0000000000000E+00  0.0000000000000E+00
   369  3.6800000000000E+00  0.0000000000000E+00  0.0000000000000E+00
   370  3.6900000000000E+00  0.0000000000000E+00  0.0000000000000E+00
   371  3.7000000000000E+00  0.0000000000000E+00  0.0000000000000E+00
   372  3.7100000000000E+00  0.0000000000000E+00  0.0000000000000E+00
   373  3.7200000000000E+00  0.0000000000000E+00  0.0000000000000E+00
   374  3.7300000000000E+00  0.0000000000000E+00  0.0000000000000E+00
   375  3.7400000000000E+00  0.0000000000000E+00  0.0000000000000E+00
   376  3.7500000000000E+00  0.0000000000000E+00  0.0000000000000E+00
   377  3.7600000000000E+00  0.0000000000000E+00  0.0000000000000E+00
   378  3.7700000000000E+00  0.0000000000000E+00  0.0000000000000E+00
   379  3.7800000000000E+00  0.0000000000000E+00  0.0000000000000E+00
   380  3.7900000000000E+00  0.0000000000000E+00  0.0000000000000E+00
   381  3.8000000000000E+00  0.0000000000000E+00  0.0000000000000E+00
   382  3.8100000000000E+00  0.0000000000000E+00  0.0000000000000E+00
   383  3.8200000000000E+00  0.0000000000000E+00  0.0000000000000E+00
   384  3.8300000000000E+00  0.0000000000000E+00  0.0000000000000E+00
   385  3.8400000000000E+00  0.0000000000000E+00  0.0000000000000E+00
   386  3.8500000000000E+00  0.0000000000000E+00  0.0000000000000E+00
   387  3.8600000000000E+00  0.0000000000000E+00  0.0000000000000E+00
   388  3.8700000000000E+00  0.0000000000000E+00  0.0000000000000E+00
   389  3.8800000000000E+00  0.0000000000000E+00  0.0000000000000E+00
   390  3.8900000000000E+00  0.0000000000000E+00  0.0000000000000E+00
   391  3.9000000000000E+00  0.0000000000000E+00  0.0000000000000E+00
   392  3.9100000000000E+00  0.0000000000000E+00  0.0000000000000E+00
   393  3.9200000000000E+00  0.0000000000000E+00  0.0000000000000E+00
   394  3.9300000000000E+00  0.0000000000000E+00  0.0000000000000E+00
   395  3.9400000000000E+00  0.0000000000000E+00  0.0000000000000E+00
   396  3.9500000000000E+00  0.0000000000000E+00  0.0000000000000E+00
   397  3.9600000000000E+00  0.0000000000000E+00  0.0000000000000E+00
   398  3.9700000000000E+00  0.0000000000000E+00  0.0000000000000E+00
   399  3.9800000000000E+00  0.0000000000000E+00  0.0000000000000E+00
   400  3.9900000000000E+00  0.0000000000000E+00  0.0000000000000E+00
   401  4.0000000000000E+00  0.0000000000000E+00  0.0000000000000E+00
   402  4.0100000000000E+00  0.0000000000000E+00  0.0000000000000E+00
   403  4.0200000000000E+00  0.0000000000000E+00  0.0000000000000E+00
   404  4.0300000000000E+00  0.0000000000000E+00  0.0000000000000E+00
   405  4.0400000000000E+00  0.0000000000000E+00  0.0000000000000E+00
   406  4.0500000000000E+00  0.0000000000000E+00  0.0000000000000E+00
   407  4.0600000000000E+00  0.0000000000000E+00  0.0000000000000E+00
   408  4.0700000000000E+00  0.0000000000000E+00  0.0000000000000E+00
   409  4.0800000000000E+00  0.0000000000000E+00  0.0000000000000E+00
   410  4.0900000000000E+00  0.0000000000000E+00  0.0000000000000E+00
   411  4.1000000000000E+00  0.0000000000000E+00  0.0000000000000E+00
   412  4.1100000000000E+00  0.0000000000000E+00  0.0000000000000E+00
   413  4.1200000000000E+00  0.0000000000000E+00  0.0000000000000E+00
   414  4.1300000000000E+00  0.0000000000000E+00  0.0000000000000E+00
   415  4.1400000000000E+00  0.0000000000000E+00  0.0000000000000E+00
   416  4.1500000000000E+00  0.0000000000000E+00  0.0000000000000E+00
   417  4.1600000000000E+00  0.0000000000000E+00  0.0000000000000E+00
   418  4.1700000000000E+00  0.0000000000000E+00  0.0000000000000E+00
   419  4.1800000000000E+00  0.0000000000000E+00  0.0000000000000E+00
   420  4.1900000000000E+00  0.0000000000000E+00  0.0000000000000E+00
   421  4.2000000000000E+00  0.0000000000000E+00  0.0000000000000E+00
   422  4.2100000000000E+00  0.0000000000000E+00  0.0000000000000E+00