Fe    ONCVPSP-3.3.0  r_core=   1.16308   1.10889   1.31043
     26.0000     16.0000      170801    zatom,zion,pspd
     8      11   2     4   600     0    pspcod,pspxc,lmax,lloc,mmax,r2well
  5.99000000  3.00000000  0.00000000    rchrg fchrg qchrg
     2     2     2     0     0    nproj
     1     1           extension_switch
   0                         1.2708829469650E+01  1.5938974552022E+00
     1  0.0000000000000E+00 -3.0416946739109E-10  1.3946648280694E-09
     2  1.0000000000000E-02  1.0470169921651E-01 -3.5776588897103E-02
     3  2.0000000000000E-02  2.0903325893908E-01 -7.1180936066779E-02
     4  3.0000000000000E-02  3.1262621773905E-01 -1.0584375778027E-01
     5  4.0000000000000E-02  4.1511546055271E-01 -1.3940165676056E-01
     6  5.0000000000000E-02  5.1614086752764E-01 -1.7149999190447E-01
     7  6.0000000000000E-02  6.1534893388336E-01 -2.0179566080385E-01
     8  7.0000000000000E-02  7.1239435148449E-01 -2.2995976765830E-01
     9  8.0000000000000E-02  8.0694154312905E-01 -2.5568015056617E-01
    10  9.0000000000000E-02  8.9866614092884E-01 -2.7866374389042E-01
    11  1.0000000000000E-01  9.8725640060009E-01 -2.9863875339833E-01
    12  1.1000000000000E-01  1.0724145439859E+00 -3.1535662414322E-01
    13  1.2000000000000E-01  1.1538580226924E+00 -3.2859378356357E-01
    14  1.3000000000000E-01  1.2313206963327E+00 -3.3815314498741E-01
    15  1.4000000000000E-01  1.3045539195304E+00 -3.4386535961189E-01
    16  1.5000000000000E-01  1.3733275325310E+00 -3.4558980804309E-01
    17  1.6000000000000E-01  1.4374307509972E+00 -3.4321532558860E-01
    18  1.7000000000000E-01  1.4966729513182E+00 -3.3666065865577E-01
    19  1.8000000000000E-01  1.5508843485322E+00 -3.2587465277906E-01
    20  1.9000000000000E-01  1.5999165647422E+00 -3.1083617593897E-01
    21  2.0000000000000E-01  1.6436430866841E+00 -2.9155378390151E-01
    22  2.1000000000000E-01  1.6819596118834E+00 -2.6806513725885E-01
    23  2.2000000000000E-01  1.7147842835965E+00 -2.4043618265002E-01
    24  2.3000000000000E-01  1.7420578154739E+00 -2.0876011324743E-01
    25  2.4000000000000E-01  1.7637435075912E+00 -1.7315612597426E-01
    26  2.5000000000000E-01  1.7798271561741E+00 -1.3376799503826E-01
    27  2.6000000000000E-01  1.7903168599740E+00 -9.0762483199299E-02
    28  2.7000000000000E-01  1.7952427268403E+00 -4.4327613705090E-02
    29  2.8000000000000E-01  1.7946564845684E+00  5.3291729866133E-03
    30  2.9000000000000E-01  1.7886310005804E+00  5.7982952750575E-02
    31  3.0000000000000E-01  1.7772597154100E+00  1.1339331618405E-01
    32  3.1000000000000E-01  1.7606559953154E+00  1.7130640632815E-01
    33  3.2000000000000E-01  1.7389524096325E+00  2.3145697047709E-01
    34  3.3000000000000E-01  1.7122999386929E+00  2.9357040147126E-01
    35  3.4000000000000E-01  1.6808671182906E+00  3.5736474486610E-01
    36  3.5000000000000E-01  1.6448391267571E+00  4.2255264970892E-01
    37  3.6000000000000E-01  1.6044168207293E+00  4.8884324231670E-01
    38  3.7000000000000E-01  1.5598157256471E+00  5.5594390440786E-01
    39  3.8000000000000E-01  1.5112649869156E+00  6.2356193916767E-01
    40  3.9000000000000E-01  1.4590062875064E+00  6.9140611128788E-01
    41  4.0000000000000E-01  1.4032927375661E+00  7.5918804967740E-01
    42  4.1000000000000E-01  1.3443877413426E+00  8.2662350435094E-01
    43  4.2000000000000E-01  1.2825638464533E+00  8.9343345192300E-01
    44  4.3000000000000E-01  1.2181015801927E+00  9.5934504711733E-01
    45  4.4000000000000E-01  1.1512882772315E+00  1.0240924207003E+00
    46  4.5000000000000E-01  1.0824169027005E+00  1.0874173272105E+00
    47  4.6000000000000E-01  1.0117848742762E+00  1.1490696487380E+00
    48  4.7000000000000E-01  9.3969288652128E-01  1.2088077637533E+00
    49  4.8000000000000E-01  8.6644374036506E-01  1.2663987925599E+00
    50  4.9000000000000E-01  7.9234118026638E-01  1.3216187332852E+00
    51  5.0000000000000E-01  7.1768874127461E-01  1.3742525044073E+00
    52  5.1000000000000E-01  6.4278860791214E-01  1.4240939115893E+00
    53  5.2000000000000E-01  5.6794048654300E-01  1.4709455580277E+00
    54  5.3000000000000E-01  4.9344049267673E-01  1.5146187185928E+00
    55  5.4000000000000E-01  4.1958005448711E-01  1.5549331987110E+00
    56  5.5000000000000E-01  3.4664483370621E-01  1.5917171992110E+00
    57  5.6000000000000E-01  2.7491366498837E-01  1.6248072081996E+00
    58  5.7000000000000E-01  2.0465751482839E-01  1.6540479404552E+00
    59  5.8000000000000E-01  1.3613846116164E-01  1.6792923438258E+00
    60  5.9000000000000E-01  6.9608694874208E-02  1.7004016907039E+00
    61  6.0000000000000E-01  5.3095446026098E-03  1.7172457708400E+00
    62  6.1000000000000E-01 -5.6529473594607E-02  1.7297031995666E+00
    63  6.2000000000000E-01 -1.1569157986430E-01  1.7376618529862E+00
    64  6.3000000000000E-01 -1.7197362536654E-01  1.7410194388264E+00
    65  6.4000000000000E-01 -2.2518695582401E-01  1.7396842085800E+00
    66  6.5000000000000E-01 -2.7515824102457E-01  1.7335758132198E+00
    67  6.6000000000000E-01 -3.2173026712182E-01  1.7226263012933E+00
    68  6.7000000000000E-01 -3.6476268820366E-01  1.7067812546231E+00
    69  6.8000000000000E-01 -4.0413273322199E-01  1.6860010531818E+00
    70  6.9000000000000E-01 -4.3973586401119E-01  1.6602622570873E+00
    71  7.0000000000000E-01 -4.7148637977793E-01  1.6295590900996E+00
    72  7.1000000000000E-01 -4.9931796313071E-01  1.5939050055953E+00
    73  7.2000000000000E-01 -5.2318416244225E-01  1.5533343127488E+00
    74  7.3000000000000E-01 -5.4305880511517E-01  1.5079038376995E+00
    75  7.4000000000000E-01 -5.5893633615728E-01  1.4576945918255E+00
    76  7.5000000000000E-01 -5.7083207637748E-01  1.4028134169599E+00
    77  7.6000000000000E-01 -5.7878239449306E-01  1.3433945755151E+00
    78  7.7000000000000E-01 -5.8284478750268E-01  1.2796012520670E+00
    79  7.8000000000000E-01 -5.8309786382980E-01  1.2116269320270E+00
    80  7.9000000000000E-01 -5.7964122398430E-01  1.1396966226330E+00
    81  8.0000000000000E-01 -5.7259523382716E-01  1.0640678816291E+00
    82  8.1000000000000E-01 -5.6210068595601E-01  9.8503161969326E-01
    83  8.2000000000000E-01 -5.4831834525650E-01  9.0291264392708E-01
    84  8.3000000000000E-01 -5.3142837528488E-01  8.1806991151192E-01
    85  8.4000000000000E-01 -5.1162964285481E-01  7.3089646497373E-01
    86  8.5000000000000E-01 -4.8913889899257E-01  6.4181902333756E-01
    87  8.6000000000000E-01 -4.6418983529026E-01  5.5129720677316E-01
    88  8.7000000000000E-01 -4.3703201561878E-01  4.5982237608806E-01
    89  8.8000000000000E-01 -4.0792968414915E-01  3.6791607256528E-01
    90  8.9000000000000E-01 -3.7716045166203E-01  2.7612804811378E-01
    91  9.0000000000000E-01 -3.4501386318670E-01  1.8503388043794E-01
    92  9.1000000000000E-01 -3.1178985108859E-01  9.5232172867321E-02
    93  9.2000000000000E-01 -2.7779707880434E-01  7.3413435495976E-03
    94  9.3000000000000E-01 -2.4335118148883E-01 -7.8003986181121E-02
    95  9.4000000000000E-01 -2.0877291087487E-01 -1.6015698936860E-01
    96  9.5000000000000E-01 -1.7438619263683E-01 -2.3846299706874E-01
    97  9.6000000000000E-01 -1.4051610547757E-01 -3.1226420341551E-01
    98  9.7000000000000E-01 -1.0748679201678E-01 -3.8090468292943E-01
    99  9.8000000000000E-01 -7.5619312305667E-02 -4.4373568678578E-01
   100  9.9000000000000E-01 -4.5229451465905E-02 -5.0012118090626E-01
   101  1.0000000000000E+00 -1.6625493481407E-02 -5.4944358549256E-01
   102  1.0100000000000E+00  9.8940264182709E-03 -5.9110967286990E-01
   103  1.0200000000000E+00  3.4042578069927E-02 -6.2455657833170E-01
   104  1.0300000000000E+00  5.5547888541958E-02 -6.4925787713206E-01
   105  1.0400000000000E+00  7.4154177353538E-02 -6.6472967993948E-01
   106  1.0500000000000E+00  8.9624362090276E-02 -6.7053669879658E-01
   107  1.0600000000000E+00  1.0174222213437E-01 -6.6629823619010E-01
   108  1.0700000000000E+00  1.1031450876942E-01 -6.5169405127872E-01
   109  1.0800000000000E+00  1.1517299241585E-01 -6.2647006556528E-01
   110  1.0900000000000E+00  1.1617644404600E-01 -5.9044389015456E-01
   111  1.1000000000000E+00  1.1321234685168E-01 -5.4350947798313E-01
   112  1.1100000000000E+00  1.0619933635386E-01 -4.8564430042106E-01
   113  1.1200000000000E+00  9.5086946339403E-02 -4.1690729786906E-01
   114  1.1300000000000E+00  7.9753755999473E-02 -3.3705858636976E-01
   115  1.1400000000000E+00  6.1109790689029E-02 -2.4969780418031E-01
   116  1.1500000000000E+00  3.6611491471128E-02 -1.4539332765355E-01
   117  1.1600000000000E+00  6.6233230279295E-03 -2.5623377632751E-02
   118  1.1700000000000E+00 -3.2399248585891E-03  1.2890288722190E-02
   119  1.1800000000000E+00  5.6993613775542E-04 -2.2793572394573E-03
   120  1.1900000000000E+00  1.8564488803638E-04 -7.3998695909383E-04
   121  1.2000000000000E+00 -9.4452832977269E-05  3.8413912740627E-04
   122  1.2100000000000E+00 -5.2512159280533E-07  1.2001640199314E-06
   123  1.2200000000000E+00  0.0000000000000E+00  0.0000000000000E+00
   124  1.2300000000000E+00  0.0000000000000E+00  0.0000000000000E+00
   125  1.2400000000000E+00  0.0000000000000E+00  0.0000000000000E+00
   126  1.2500000000000E+00  0.0000000000000E+00  0.0000000000000E+00
   127  1.2600000000000E+00  0.0000000000000E+00  0.0000000000000E+00
   128  1.2700000000000E+00  0.0000000000000E+00  0.0000000000000E+00
   129  1.2800000000000E+00  0.0000000000000E+00  0.0000000000000E+00
   130  1.2900000000000E+00  0.0000000000000E+00  0.0000000000000E+00
   131  1.3000000000000E+00  0.0000000000000E+00  0.0000000000000E+00
   132  1.3100000000000E+00  0.0000000000000E+00  0.0000000000000E+00
   133  1.3200000000000E+00  0.0000000000000E+00  0.0000000000000E+00
   134  1.3300000000000E+00  0.0000000000000E+00  0.0000000000000E+00
   135  1.3400000000000E+00  0.0000000000000E+00  0.0000000000000E+00
   136  1.3500000000000E+00  0.0000000000000E+00  0.0000000000000E+00
   137  1.3600000000000E+00  0.0000000000000E+00  0.0000000000000E+00
   138  1.3700000000000E+00  0.0000000000000E+00  0.0000000000000E+00
   139  1.3800000000000E+00  0.0000000000000E+00  0.0000000000000E+00
   140  1.3900000000000E+00  0.0000000000000E+00  0.0000000000000E+00
   141  1.4000000000000E+00  0.0000000000000E+00  0.0000000000000E+00
   142  1.4100000000000E+00  0.0000000000000E+00  0.0000000000000E+00
   143  1.4200000000000E+00  0.0000000000000E+00  0.0000000000000E+00
   144  1.4300000000000E+00  0.0000000000000E+00  0.0000000000000E+00
   145  1.4400000000000E+00  0.0000000000000E+00  0.0000000000000E+00
   146  1.4500000000000E+00  0.0000000000000E+00  0.0000000000000E+00
   147  1.4600000000000E+00  0.0000000000000E+00  0.0000000000000E+00
   148  1.4700000000000E+00  0.0000000000000E+00  0.0000000000000E+00
   149  1.4800000000000E+00  0.0000000000000E+00  0.0000000000000E+00
   150  1.4900000000000E+00  0.0000000000000E+00  0.0000000000000E+00
   151  1.5000000000000E+00  0.0000000000000E+00  0.0000000000000E+00
   152  1.5100000000000E+00  0.0000000000000E+00  0.0000000000000E+00
   153  1.5200000000000E+00  0.0000000000000E+00  0.0000000000000E+00
   154  1.5300000000000E+00  0.0000000000000E+00  0.0000000000000E+00
   155  1.5400000000000E+00  0.0000000000000E+00  0.0000000000000E+00
   156  1.5500000000000E+00  0.0000000000000E+00  0.0000000000000E+00
   157  1.5600000000000E+00  0.0000000000000E+00  0.0000000000000E+00
   158  1.5700000000000E+00  0.0000000000000E+00  0.0000000000000E+00
   159  1.5800000000000E+00  0.0000000000000E+00  0.0000000000000E+00
   160  1.5900000000000E+00  0.0000000000000E+00  0.0000000000000E+00
   161  1.6000000000000E+00  0.0000000000000E+00  0.0000000000000E+00
   162  1.6100000000000E+00  0.0000000000000E+00  0.0000000000000E+00
   163  1.6200000000000E+00  0.0000000000000E+00  0.0000000000000E+00
   164  1.6300000000000E+00  0.0000000000000E+00  0.0000000000000E+00
   165  1.6400000000000E+00  0.0000000000000E+00  0.0000000000000E+00
   166  1.6500000000000E+00  0.0000000000000E+00  0.0000000000000E+00
   167  1.6600000000000E+00  0.0000000000000E+00  0.0000000000000E+00
   168  1.6700000000000E+00  0.0000000000000E+00  0.0000000000000E+00
   169  1.6800000000000E+00  0.0000000000000E+00  0.0000000000000E+00
   170  1.6900000000000E+00  0.0000000000000E+00  0.0000000000000E+00
   171  1.7000000000000E+00  0.0000000000000E+00  0.0000000000000E+00
   172  1.7100000000000E+00  0.0000000000000E+00  0.0000000000000E+00
   173  1.7200000000000E+00  0.0000000000000E+00  0.0000000000000E+00
   174  1.7300000000000E+00  0.0000000000000E+00  0.0000000000000E+00
   175  1.7400000000000E+00  0.0000000000000E+00  0.0000000000000E+00
   176  1.7500000000000E+00  0.0000000000000E+00  0.0000000000000E+00
   177  1.7600000000000E+00  0.0000000000000E+00  0.0000000000000E+00
   178  1.7700000000000E+00  0.0000000000000E+00  0.0000000000000E+00
   179  1.7800000000000E+00  0.0000000000000E+00  0.0000000000000E+00
   180  1.7900000000000E+00  0.0000000000000E+00  0.0000000000000E+00
   181  1.8000000000000E+00  0.0000000000000E+00  0.0000000000000E+00
   182  1.8100000000000E+00  0.0000000000000E+00  0.0000000000000E+00
   183  1.8200000000000E+00  0.0000000000000E+00  0.0000000000000E+00
   184  1.8300000000000E+00  0.0000000000000E+00  0.0000000000000E+00
   185  1.8400000000000E+00  0.0000000000000E+00  0.0000000000000E+00
   186  1.8500000000000E+00  0.0000000000000E+00  0.0000000000000E+00
   187  1.8600000000000E+00  0.0000000000000E+00  0.0000000000000E+00
   188  1.8700000000000E+00  0.0000000000000E+00  0.0000000000000E+00
   189  1.8800000000000E+00  0.0000000000000E+00  0.0000000000000E+00
   190  1.8900000000000E+00  0.0000000000000E+00  0.0000000000000E+00
   191  1.9000000000000E+00  0.0000000000000E+00  0.0000000000000E+00
   192  1.9100000000000E+00  0.0000000000000E+00  0.0000000000000E+00
   193  1.9200000000000E+00  0.0000000000000E+00  0.0000000000000E+00
   194  1.9300000000000E+00  0.0000000000000E+00  0.0000000000000E+00
   195  1.9400000000000E+00  0.0000000000000E+00  0.0000000000000E+00
   196  1.9500000000000E+00  0.0000000000000E+00  0.0000000000000E+00
   197  1.9600000000000E+00  0.0000000000000E+00  0.0000000000000E+00
   198  1.9700000000000E+00  0.0000000000000E+00  0.0000000000000E+00
   199  1.9800000000000E+00  0.0000000000000E+00  0.0000000000000E+00
   200  1.9900000000000E+00  0.0000000000000E+00  0.0000000000000E+00
   201  2.0000000000000E+00  0.0000000000000E+00  0.0000000000000E+00
   202  2.0100000000000E+00  0.0000000000000E+00  0.0000000000000E+00
   203  2.0200000000000E+00  0.0000000000000E+00  0.0000000000000E+00
   204  2.0300000000000E+00  0.0000000000000E+00  0.0000000000000E+00
   205  2.0400000000000E+00  0.0000000000000E+00  0.0000000000000E+00
   206  2.0500000000000E+00  0.0000000000000E+00  0.0000000000000E+00
   207  2.0600000000000E+00  0.0000000000000E+00  0.0000000000000E+00
   208  2.0700000000000E+00  0.0000000000000E+00  0.0000000000000E+00
   209  2.0800000000000E+00  0.0000000000000E+00  0.0000000000000E+00
   210  2.0900000000000E+00  0.0000000000000E+00  0.0000000000000E+00
   211  2.1000000000000E+00  0.0000000000000E+00  0.0000000000000E+00
   212  2.1100000000000E+00  0.0000000000000E+00  0.0000000000000E+00
   213  2.1200000000000E+00  0.0000000000000E+00  0.0000000000000E+00
   214  2.1300000000000E+00  0.0000000000000E+00  0.0000000000000E+00
   215  2.1400000000000E+00  0.0000000000000E+00  0.0000000000000E+00
   216  2.1500000000000E+00  0.0000000000000E+00  0.0000000000000E+00
   217  2.1600000000000E+00  0.0000000000000E+00  0.0000000000000E+00
   218  2.1700000000000E+00  0.0000000000000E+00  0.0000000000000E+00
   219  2.1800000000000E+00  0.0000000000000E+00  0.0000000000000E+00
   220  2.1900000000000E+00  0.0000000000000E+00  0.0000000000000E+00
   221  2.2000000000000E+00  0.0000000000000E+00  0.0000000000000E+00
   222  2.2100000000000E+00  0.0000000000000E+00  0.0000000000000E+00
   223  2.2200000000000E+00  0.0000000000000E+00  0.0000000000000E+00
   224  2.2300000000000E+00  0.0000000000000E+00  0.0000000000000E+00
   225  2.2400000000000E+00  0.0000000000000E+00  0.0000000000000E+00
   226  2.2500000000000E+00  0.0000000000000E+00  0.0000000000000E+00
   227  2.2600000000000E+00  0.0000000000000E+00  0.0000000000000E+00
   228  2.2700000000000E+00  0.0000000000000E+00  0.0000000000000E+00
   229  2.2800000000000E+00  0.0000000000000E+00  0.0000000000000E+00
   230  2.2900000000000E+00  0.0000000000000E+00  0.0000000000000E+00
   231  2.3000000000000E+00  0.0000000000000E+00  0.0000000000000E+00
   232  2.3100000000000E+00  0.0000000000000E+00  0.0000000000000E+00
   233  2.3200000000000E+00  0.0000000000000E+00  0.0000000000000E+00
   234  2.3300000000000E+00  0.0000000000000E+00  0.0000000000000E+00
   235  2.3400000000000E+00  0.0000000000000E+00  0.0000000000000E+00
   236  2.3500000000000E+00  0.0000000000000E+00  0.0000000000000E+00
   237  2.3600000000000E+00  0.0000000000000E+00  0.0000000000000E+00
   238  2.3700000000000E+00  0.0000000000000E+00  0.0000000000000E+00
   239  2.3800000000000E+00  0.0000000000000E+00  0.0000000000000E+00
   240  2.3900000000000E+00  0.0000000000000E+00  0.0000000000000E+00
   241  2.4000000000000E+00  0.0000000000000E+00  0.0000000000000E+00
   242  2.4100000000000E+00  0.0000000000000E+00  0.0000000000000E+00
   243  2.4200000000000E+00  0.0000000000000E+00  0.0000000000000E+00
   244  2.4300000000000E+00  0.0000000000000E+00  0.0000000000000E+00
   245  2.4400000000000E+00  0.0000000000000E+00  0.0000000000000E+00
   246  2.4500000000000E+00  0.0000000000000E+00  0.0000000000000E+00
   247  2.4600000000000E+00  0.0000000000000E+00  0.0000000000000E+00
   248  2.4700000000000E+00  0.0000000000000E+00  0.0000000000000E+00
   249  2.4800000000000E+00  0.0000000000000E+00  0.0000000000000E+00
   250  2.4900000000000E+00  0.0000000000000E+00  0.0000000000000E+00
   251  2.5000000000000E+00  0.0000000000000E+00  0.0000000000000E+00
   252  2.5100000000000E+00  0.0000000000000E+00  0.0000000000000E+00
   253  2.5200000000000E+00  0.0000000000000E+00  0.0000000000000E+00
   254  2.5300000000000E+00  0.0000000000000E+00  0.0000000000000E+00
   255  2.5400000000000E+00  0.0000000000000E+00  0.0000000000000E+00
   256  2.5500000000000E+00  0.0000000000000E+00  0.0000000000000E+00
   257  2.5600000000000E+00  0.0000000000000E+00  0.0000000000000E+00
   258  2.5700000000000E+00  0.0000000000000E+00  0.0000000000000E+00
   259  2.5800000000000E+00  0.0000000000000E+00  0.0000000000000E+00
   260  2.5900000000000E+00  0.0000000000000E+00  0.0000000000000E+00
   261  2.6000000000000E+00  0.0000000000000E+00  0.0000000000000E+00
   262  2.6100000000000E+00  0.0000000000000E+00  0.0000000000000E+00
   263  2.6200000000000E+00  0.0000000000000E+00  0.0000000000000E+00
   264  2.6300000000000E+00  0.0000000000000E+00  0.0000000000000E+00
   265  2.6400000000000E+00  0.0000000000000E+00  0.0000000000000E+00
   266  2.6500000000000E+00  0.0000000000000E+00  0.0000000000000E+00
   267  2.6600000000000E+00  0.0000000000000E+00  0.0000000000000E+00
   268  2.6700000000000E+00  0.0000000000000E+00  0.0000000000000E+00
   269  2.6800000000000E+00  0.0000000000000E+00  0.0000000000000E+00
   270  2.6900000000000E+00  0.0000000000000E+00  0.0000000000000E+00
   271  2.7000000000000E+00  0.0000000000000E+00  0.0000000000000E+00
   272  2.7100000000000E+00  0.0000000000000E+00  0.0000000000000E+00
   273  2.7200000000000E+00  0.0000000000000E+00  0.0000000000000E+00
   274  2.7300000000000E+00  0.0000000000000E+00  0.0000000000000E+00
   275  2.7400000000000E+00  0.0000000000000E+00  0.0000000000000E+00
   276  2.7500000000000E+00  0.0000000000000E+00  0.0000000000000E+00
   277  2.7600000000000E+00  0.0000000000000E+00  0.0000000000000E+00
   278  2.7700000000000E+00  0.0000000000000E+00  0.0000000000000E+00
   279  2.7800000000000E+00  0.0000000000000E+00  0.0000000000000E+00
   280  2.7900000000000E+00  0.0000000000000E+00  0.0000000000000E+00
   281  2.8000000000000E+00  0.0000000000000E+00  0.0000000000000E+00
   282  2.8100000000000E+00  0.0000000000000E+00  0.0000000000000E+00
   283  2.8200000000000E+00  0.0000000000000E+00  0.0000000000000E+00
   284  2.8300000000000E+00  0.0000000000000E+00  0.0000000000000E+00
   285  2.8400000000000E+00  0.0000000000000E+00  0.0000000000000E+00
   286  2.8500000000000E+00  0.0000000000000E+00  0.0000000000000E+00
   287  2.8600000000000E+00  0.0000000000000E+00  0.0000000000000E+00
   288  2.8700000000000E+00  0.0000000000000E+00  0.0000000000000E+00
   289  2.8800000000000E+00  0.0000000000000E+00  0.0000000000000E+00
   290  2.8900000000000E+00  0.0000000000000E+00  0.0000000000000E+00
   291  2.9000000000000E+00  0.0000000000000E+00  0.0000000000000E+00
   292  2.9100000000000E+00  0.0000000000000E+00  0.0000000000000E+00
   293  2.9200000000000E+00  0.0000000000000E+00  0.0000000000000E+00
   294  2.9300000000000E+00  0.0000000000000E+00  0.0000000000000E+00
   295  2.9400000000000E+00  0.0000000000000E+00  0.0000000000000E+00
   296  2.9500000000000E+00  0.0000000000000E+00  0.0000000000000E+00
   297  2.9600000000000E+00  0.0000000000000E+00  0.0000000000000E+00
   298  2.9700000000000E+00  0.0000000000000E+00  0.0000000000000E+00
   299  2.9800000000000E+00  0.0000000000000E+00  0.0000000000000E+00
   300  2.9900000000000E+00  0.0000000000000E+00  0.0000000000000E+00
   301  3.0000000000000E+00  0.0000000000000E+00  0.0000000000000E+00
   302  3.0100000000000E+00  0.0000000000000E+00  0.0000000000000E+00
   303  3.0200000000000E+00  0.0000000000000E+00  0.0000000000000E+00
   304  3.0300000000000E+00  0.0000000000000E+00  0.0000000000000E+00
   305  3.0400000000000E+00  0.0000000000000E+00  0.0000000000000E+00
   306  3.0500000000000E+00  0.0000000000000E+00  0.0000000000000E+00
   307  3.0600000000000E+00  0.0000000000000E+00  0.0000000000000E+00
   308  3.0700000000000E+00  0.0000000000000E+00  0.0000000000000E+00
   309  3.0800000000000E+00  0.0000000000000E+00  0.0000000000000E+00
   310  3.0900000000000E+00  0.0000000000000E+00  0.0000000000000E+00
   311  3.1000000000000E+00  0.0000000000000E+00  0.0000000000000E+00
   312  3.1100000000000E+00  0.0000000000000E+00  0.0000000000000E+00
   313  3.1200000000000E+00  0.0000000000000E+00  0.0000000000000E+00
   314  3.1300000000000E+00  0.0000000000000E+00  0.0000000000000E+00
   315  3.1400000000000E+00  0.0000000000000E+00  0.0000000000000E+00
   316  3.1500000000000E+00  0.0000000000000E+00  0.0000000000000E+00
   317  3.1600000000000E+00  0.0000000000000E+00  0.0000000000000E+00
   318  3.1700000000000E+00  0.0000000000000E+00  0.0000000000000E+00
   319  3.1800000000000E+00  0.0000000000000E+00  0.0000000000000E+00
   320  3.1900000000000E+00  0.0000000000000E+00  0.0000000000000E+00
   321  3.2000000000000E+00  0.0000000000000E+00  0.0000000000000E+00
   322  3.2100000000000E+00  0.0000000000000E+00  0.0000000000000E+00
   323  3.2200000000000E+00  0.0000000000000E+00  0.0000000000000E+00
   324  3.2300000000000E+00  0.0000000000000E+00  0.0000000000000E+00
   325  3.2400000000000E+00  0.0000000000000E+00  0.0000000000000E+00
   326  3.2500000000000E+00  0.0000000000000E+00  0.0000000000000E+00
   327  3.2600000000000E+00  0.0000000000000E+00  0.0000000000000E+00
   328  3.2700000000000E+00  0.0000000000000E+00  0.0000000000000E+00
   329  3.2800000000000E+00  0.0000000000000E+00  0.0000000000000E+00
   330  3.2900000000000E+00  0.0000000000000E+00  0.0000000000000E+00
   331  3.3000000000000E+00  0.0000000000000E+00  0.0000000000000E+00
   332  3.3100000000000E+00  0.0000000000000E+00  0.0000000000000E+00
   333  3.3200000000000E+00  0.0000000000000E+00  0.0000000000000E+00
   334  3.3300000000000E+00  0.0000000000000E+00  0.0000000000000E+00
   335  3.3400000000000E+00  0.0000000000000E+00  0.0000000000000E+00
   336  3.3500000000000E+00  0.0000000000000E+00  0.0000000000000E+00
   337  3.3600000000000E+00  0.0000000000000E+00  0.0000000000000E+00
   338  3.3700000000000E+00  0.0000000000000E+00  0.0000000000000E+00
   339  3.3800000000000E+00  0.0000000000000E+00  0.0000000000000E+00
   340  3.3900000000000E+00  0.0000000000000E+00  0.0000000000000E+00
   341  3.4000000000000E+00  0.0000000000000E+00  0.0000000000000E+00
   342  3.4100000000000E+00  0.0000000000000E+00  0.0000000000000E+00
   343  3.4200000000000E+00  0.0000000000000E+00  0.0000000000000E+00
   344  3.4300000000000E+00  0.0000000000000E+00  0.0000000000000E+00
   345  3.4400000000000E+00  0.0000000000000E+00  0.0000000000000E+00
   346  3.4500000000000E+00  0.0000000000000E+00  0.0000000000000E+00
   347  3.4600000000000E+00  0.0000000000000E+00  0.0000000000000E+00
   348  3.4700000000000E+00  0.0000000000000E+00  0.0000000000000E+00
   349  3.4800000000000E+00  0.0000000000000E+00  0.0000000000000E+00
   350  3.4900000000000E+00  0.0000000000000E+00  0.0000000000000E+00
   351  3.5000000000000E+00  0.0000000000000E+00  0.0000000000000E+00
   352  3.5100000000000E+00  0.0000000000000E+00  0.0000000000000E+00
   353  3.5200000000000E+00  0.0000000000000E+00  0.0000000000000E+00
   354  3.5300000000000E+00  0.0000000000000E+00  0.0000000000000E+00
   355  3.5400000000000E+00  0.0000000000000E+00  0.0000000000000E+00
   356  3.5500000000000E+00  0.0000000000000E+00  0.0000000000000E+00
   357  3.5600000000000E+00  0.0000000000000E+00  0.0000000000000E+00
   358  3.5700000000000E+00  0.0000000000000E+00  0.0000000000000E+00
   359  3.5800000000000E+00  0.0000000000000E+00  0.0000000000000E+00
   360  3.5900000000000E+00  0.0000000000000E+00  0.0000000000000E+00
   361  3.6000000000000E+00  0.0000000000000E+00  0.0000000000000E+00
   362  3.6100000000000E+00  0.0000000000000E+00  0.0000000000000E+00
   363  3.6200000000000E+00  0.0000000000000E+00  0.0000000000000E+00
   364  3.6300000000000E+00  0.0000000000000E+00  0.0000000000000E+00
   365  3.6400000000000E+00  0.0000000000000E+00  0.0000000000000E+00
   366  3.6500000000000E+00  0.0000000000000E+00  0.0000000000000E+00
   367  3.6600000000000E+00  0.0000000000000E+00  0.0000000000000E+00
   368  3.6700000000000E+00  0.0000000000000E+00  0.0000000000000E+00
   369  3.6800000000000E+00  0.0000000000000E+00  0.0000000000000E+00
   370  3.6900000000000E+00  0.0000000000000E+00  0.0000000000000E+00
   371  3.7000000000000E+00  0.0000000000000E+00  0.0000000000000E+00
   372  3.7100000000000E+00  0.0000000000000E+00  0.0000000000000E+00
   373  3.7200000000000E+00  0.0000000000000E+00  0.0000000000000E+00
   374  3.7300000000000E+00  0.0000000000000E+00  0.0000000000000E+00
   375  3.7400000000000E+00  0.0000000000000E+00  0.0000000000000E+00
   376  3.7500000000000E+00  0.0000000000000E+00  0.0000000000000E+00
   377  3.7600000000000E+00  0.0000000000000E+00  0.0000000000000E+00
   378  3.7700000000000E+00  0.0000000000000E+00  0.0000000000000E+00
   379  3.7800000000000E+00  0.0000000000000E+00  0.0000000000000E+00
   380  3.7900000000000E+00  0.0000000000000E+00  0.0000000000000E+00
   381  3.8000000000000E+00  0.0000000000000E+00  0.0000000000000E+00
   382  3.8100000000000E+00  0.0000000000000E+00  0.0000000000000E+00
   383  3.8200000000000E+00  0.0000000000000E+00  0.0000000000000E+00
   384  3.8300000000000E+00  0.0000000000000E+00  0.0000000000000E+00
   385  3.8400000000000E+00  0.0000000000000E+00  0.0000000000000E+00
   386  3.8500000000000E+00  0.0000000000000E+00  0.0000000000000E+00
   387  3.8600000000000E+00  0.0000000000000E+00  0.0000000000000E+00
   388  3.8700000000000E+00  0.0000000000000E+00  0.0000000000000E+00
   389  3.8800000000000E+00  0.0000000000000E+00  0.0000000000000E+00
   390  3.8900000000000E+00  0.0000000000000E+00  0.0000000000000E+00
   391  3.9000000000000E+00  0.0000000000000E+00  0.0000000000000E+00
   392  3.9100000000000E+00  0.0000000000000E+00  0.0000000000000E+00
   393  3.9200000000000E+00  0.0000000000000E+00  0.0000000000000E+00
   394  3.9300000000000E+00  0.0000000000000E+00  0.0000000000000E+00
   395  3.9400000000000E+00  0.0000000000000E+00  0.0000000000000E+00
   396  3.9500000000000E+00  0.0000000000000E+00  0.0000000000000E+00
   397  3.9600000000000E+00  0.0000000000000E+00  0.0000000000000E+00
   398  3.9700000000000E+00  0.0000000000000E+00  0.0000000000000E+00
   399  3.9800000000000E+00  0.0000000000000E+00  0.0000000000000E+00
   400  3.9900000000000E+00  0.0000000000000E+00  0.0000000000000E+00
   401  4.0000000000000E+00  0.0000000000000E+00  0.0000000000000E+00
   402  4.0100000000000E+00  0.0000000000000E+00  0.0000000000000E+00
   403  4.0200000000000E+00  0.0000000000000E+00  0.0000000000000E+00
   404  4.0300000000000E+00  0.0000000000000E+00  0.0000000000000E+00
   405  4.0400000000000E+00  0.0000000000000E+00  0.0000000000000E+00
   406  4.0500000000000E+00  0.0000000000000E+00  0.0000000000000E+00
   407  4.0600000000000E+00  0.0000000000000E+00  0.0000000000000E+00
   408  4.0700000000000E+00  0.0000000000000E+00  0.0000000000000E+00
   409  4.0800000000000E+00  0.0000000000000E+00  0.0000000000000E+00
   410  4.0900000000000E+00  0.0000000000000E+00  0.0000000000000E+00
   411  4.1000000000000E+00  0.0000000000000E+00  0.0000000000000E+00
   412  4.1100000000000E+00  0.0000000000000E+00  0.0000000000000E+00
   413  4.1200000000000E+00  0.0000000000000E+00  0.0000000000000E+00
   414  4.1300000000000E+00  0.0000000000000E+00  0.0000000000000E+00
   415  4.1400000000000E+00  0.0000000000000E+00  0.0000000000000E+00
   416  4.1500000000000E+00  0.0000000000000E+00  0.0000000000000E+00
   417  4.1600000000000E+00  0.0000000000000E+00  0.0000000000000E+00
   418  4.1700000000000E+00  0.0000000000000E+00  0.0000000000000E+00
   419  4.1800000000000E+00  0.0000000000000E+00  0.0000000000000E+00
   420  4.1900000000000E+00  0.0000000000000E+00  0.0000000000000E+00
   421  4.2000000000000E+00  0.0000000000000E+00  0.0000000000000E+00
   422  4.2100000000000E+00  0.0000000000000E+00  0.0000000000000E+00