Pt    ONCVPSP  r_core=  1.41  1.46  1.41
78.0000     18.0000      160330    zatom,zion,pspd
8      11   2     4   500     0    pspcod,pspxc,lmax,lloc,mmax,r2well
4.99000000  0.15000000  0.00000000    rchrg fchrg qchrg
2     4     4     0    nproj
3                 extension_switch
4     4     0    nprojso
0                         2.3311889427932E+00  3.1398658013218E+01
1  0.0000000000000E+00 -2.1194362237464E-10 -2.5010860049690E-10
2  1.0000000000000E-02 -7.2716675481097E-03  8.4437875098775E-02
3  2.0000000000000E-02 -1.4509590928426E-02  1.6867360490105E-01
4  3.0000000000000E-02 -2.1679447961714E-02  2.5250546281222E-01
5  4.0000000000000E-02 -2.8745755037750E-02  3.3573255365872E-01
6  5.0000000000000E-02 -3.5671286216122E-02  4.1815521929422E-01
7  6.0000000000000E-02 -4.2416505799602E-02  4.9957543729992E-01
8  7.0000000000000E-02 -4.8939025276790E-02  5.7979721327373E-01
9  8.0000000000000E-02 -5.5193095318790E-02  6.5862696745379E-01
10  9.0000000000000E-02 -6.1129143196250E-02  7.3587391664535E-01
11  1.0000000000000E-01 -6.6693365555674E-02  8.1135045261175E-01
12  1.1000000000000E-01 -7.1827385956594E-02  8.8487251824426E-01
13  1.2000000000000E-01 -7.6467985924743E-02  9.5625998293800E-01
14  1.3000000000000E-01 -8.0546917523253E-02  1.0253370186679E+00
15  1.4000000000000E-01 -8.3990804588527E-02  1.0919324782775E+00
16  1.5000000000000E-01 -8.6721138824502E-02  1.1558802774633E+00
17  1.6000000000000E-01 -8.8654375906900E-02  1.2170197818537E+00
18  1.7000000000000E-01 -8.9702135625027E-02  1.2751962004543E+00
19  1.8000000000000E-01 -8.9771508892855E-02  1.3302609865440E+00
20  1.9000000000000E-01 -8.8765473204565E-02  1.3820722468827E+00
21  2.0000000000000E-01 -8.6583416803335E-02  1.4304951598141E+00
22  2.1000000000000E-01 -8.3121770489676E-02  1.4754024025322E+00
23  2.2000000000000E-01 -7.8274744629314E-02  1.5166745874260E+00
24  2.3000000000000E-01 -7.1935167544933E-02  1.5542007070316E+00
25  2.4000000000000E-01 -6.3995420105515E-02  1.5878785867048E+00
26  2.5000000000000E-01 -5.4348459975042E-02  1.6176153436923E+00
27  2.6000000000000E-01 -4.2888927665678E-02  1.6433278508294E+00
28  2.7000000000000E-01 -2.9514325270673E-02  1.6649432026278E+00
29  2.8000000000000E-01 -1.4126257547932E-02  1.6823991810602E+00
30  2.9000000000000E-01  3.3682761042371E-03  1.6956447178877E+00
31  3.0000000000000E-01  2.3055551274189E-02  1.7046403499320E+00
32  3.1000000000000E-01  4.5013763195102E-02  1.7093586632740E+00
33  3.2000000000000E-01  6.9311660679246E-02  1.7097847219587E+00
34  3.3000000000000E-01  9.6007184261545E-02  1.7059164764291E+00
35  3.4000000000000E-01  1.2514612403562E-01  1.6977651465878E+00
36  3.5000000000000E-01  1.5676081306704E-01  1.6853555741159E+00
37  3.6000000000000E-01  1.9086887251352E-01  1.6687265384608E+00
38  3.7000000000000E-01  2.2747202466368E-01  1.6479310307485E+00
39  3.8000000000000E-01  2.6655499001827E-01  1.6230364797851E+00
40  3.9000000000000E-01  3.0808448427711E-01  1.5941249242940E+00
41  4.0000000000000E-01  3.5200833065817E-01  1.5612931255903E+00
42  4.1000000000000E-01  3.9825470236205E-01  1.5246526150266E+00
43  4.2000000000000E-01  4.4673150920546E-01  1.4843296707599E+00
44  4.3000000000000E-01  4.9732594148378E-01  1.4404652186839E+00
45  4.4000000000000E-01  5.4990418299068E-01  1.3932146527503E+00
46  4.5000000000000E-01  6.0431130382658E-01  1.3427475703647E+00
47  4.6000000000000E-01  6.6037134217626E-01  1.2892474190821E+00
48  4.7000000000000E-01  7.1788758263871E-01  1.2329110514504E+00
49  4.8000000000000E-01  7.7664303696089E-01  1.1739481855411E+00
50  4.9000000000000E-01  8.3640113117383E-01  1.1125807694766E+00
51  5.0000000000000E-01  8.9690660117054E-01  1.0490422490896E+00
52  5.1000000000000E-01  9.5788659671699E-01  9.8357673873928E-01
53  5.2000000000000E-01  1.0190519917657E+00  9.1643809624732E-01
54  5.3000000000000E-01  1.0800988967693E+00  8.4788890389579E-01
55  5.4000000000000E-01  1.1407103664875E+00  7.7819935844103E-01
56  5.5000000000000E-01  1.2005582945657E+00  7.0764607413097E-01
57  5.6000000000000E-01  1.2593054839635E+00  6.3651080375707E-01
58  5.7000000000000E-01  1.3166078801464E+00  5.6507908381502E-01
59  5.8000000000000E-01  1.3721169518497E+00  4.9363881087836E-01
60  5.9000000000000E-01  1.4254822022074E+00  4.2247875729155E-01
61  6.0000000000000E-01  1.4763537911254E+00  3.5188703525520E-01
62  6.1000000000000E-01  1.5243852480056E+00  2.8214951928806E-01
63  6.2000000000000E-01  1.5692362523095E+00  2.1354823789858E-01
64  6.3000000000000E-01  1.6105754580065E+00  1.4635974607114E-01
65  6.4000000000000E-01  1.6480833367218E+00  8.0853490850390E-02
66  6.5000000000000E-01  1.6814550133798E+00  1.7290182889789E-02
67  6.6000000000000E-01  1.7104030673669E+00 -4.4079812704205E-02
68  6.7000000000000E-01  1.7346602717234E+00 -1.0301805255632E-01
69  6.8000000000000E-01  1.7539822426285E+00 -1.5929954434521E-01
70  6.9000000000000E-01  1.7681499714863E+00 -2.1271421530239E-01
71  7.0000000000000E-01  1.7769722122547E+00 -2.6306830599768E-01
72  7.1000000000000E-01  1.7802876972929E+00 -3.1018567574408E-01
73  7.2000000000000E-01  1.7779671559447E+00 -3.5390900633373E-01
74  7.3000000000000E-01  1.7699151113121E+00 -3.9410089134956E-01
75  7.4000000000000E-01  1.7560714322175E+00 -4.3064479898600E-01
76  7.5000000000000E-01  1.7364126191831E+00 -4.6344589715462E-01
77  7.6000000000000E-01  1.7109528053648E+00 -4.9243173063882E-01
78  7.7000000000000E-01  1.6797444557643E+00 -5.1755274119932E-01
79  7.8000000000000E-01  1.6428787506622E+00 -5.3878262279666E-01
80  7.9000000000000E-01  1.6004856420674E+00 -5.5611850549043E-01
81  8.0000000000000E-01  1.5527335750310E+00 -5.6958096307880E-01
82  8.1000000000000E-01  1.4998288688925E+00 -5.7921384114458E-01
83  8.2000000000000E-01  1.4420147568879E+00 -5.8508390385827E-01
84  8.3000000000000E-01  1.3795700860165E+00 -5.8728029963926E-01
85  8.4000000000000E-01  1.3128076825944E+00 -5.8591384757209E-01
86  8.5000000000000E-01  1.2420723924850E+00 -5.8111614829800E-01
87  8.6000000000000E-01  1.1677388085477E+00 -5.7303852493011E-01
88  8.7000000000000E-01  1.0902087013364E+00 -5.6185080135325E-01
89  8.8000000000000E-01  1.0099081724805E+00 -5.4773992704264E-01
90  8.9000000000000E-01  9.2728455343356E-01 -5.3090845924861E-01
91  9.0000000000000E-01  8.4280307535132E-01 -5.1157291502323E-01
92  9.1000000000000E-01  7.5694333870393E-01 -4.8996200708824E-01
93  9.2000000000000E-01  6.7019561381320E-01 -4.6631477893922E-01
94  9.3000000000000E-01  5.8305700577987E-01 -4.4087865582850E-01
95  9.4000000000000E-01  4.9602751920447E-01 -4.1390742934979E-01
96  9.5000000000000E-01  4.0960605966838E-01 -3.8565919424179E-01
97  9.6000000000000E-01  3.2428641010318E-01 -3.5639425672148E-01
98  9.7000000000000E-01  2.4055322091268E-01 -3.2637303413615E-01
99  9.8000000000000E-01  1.5887805298182E-01 -2.9585396596723E-01
100  9.9000000000000E-01  7.9715512554657E-02 -2.6509145624234E-01
101  1.0000000000000E+00  3.4995162880480E-03 -2.3433386717561E-01
102  1.0100000000000E+00 -6.9360276338304E-02 -2.0382158338058E-01
103  1.0200000000000E+00 -1.3848182768443E-01 -1.7378516527787E-01
104  1.0300000000000E+00 -2.0351385018519E-01 -1.4444360935728E-01
105  1.0400000000000E+00 -2.6413866725381E-01 -1.1600273171956E-01
106  1.0500000000000E+00 -3.2007477885762E-01 -8.8653689920559E-02
107  1.0600000000000E+00 -3.7107910713005E-01 -6.2571656502981E-02
108  1.0700000000000E+00 -4.1694890131013E-01 -3.7914655668395E-02
109  1.0800000000000E+00 -4.5752328524162E-01 -1.4822572589582E-02
110  1.0900000000000E+00 -4.9268443530921E-01  6.5836574517039E-03
111  1.1000000000000E+00 -5.2235838109118E-01  2.6202675120896E-02
112  1.1100000000000E+00 -5.4651542597246E-01  4.3953135795221E-02
113  1.1200000000000E+00 -5.6517019022300E-01  5.9773961209278E-02
114  1.1300000000000E+00 -5.7838128394839E-01  7.3624406638996E-02
115  1.1400000000000E+00 -5.8625062267125E-01  8.5483949003680E-02
116  1.1500000000000E+00 -5.8892240275822E-01  9.5352003536298E-02
117  1.1600000000000E+00 -5.8658176006062E-01  1.0324747982239E-01
118  1.1700000000000E+00 -5.7945313931751E-01  1.0920819015855E-01
119  1.1800000000000E+00 -5.6779840641238E-01  1.1329012552098E-01
120  1.1900000000000E+00 -5.5191474002657E-01  1.1556661673344E-01
121  1.2000000000000E+00 -5.3213234376933E-01  1.1612740078299E-01
122  1.2100000000000E+00 -5.0881202319981E-01  1.1507761398385E-01
123  1.2200000000000E+00 -4.8234267433703E-01  1.1253673482251E-01
124  1.2300000000000E+00 -4.5313873484776E-01  1.0863750175080E-01
125  1.2400000000000E+00 -4.2163764984844E-01  1.0352483162382E-01
126  1.2500000000000E+00 -3.8829740585731E-01  9.7354765337197E-02
127  1.2600000000000E+00 -3.5359418831774E-01  9.0293468268027E-02
128  1.2700000000000E+00 -3.1802025132654E-01  8.2516328076556E-02
129  1.2800000000000E+00 -2.8208190413651E-01  7.4207110259700E-02
130  1.2900000000000E+00 -2.4629792369506E-01  6.5557311017504E-02
131  1.3000000000000E+00 -2.1119706929353E-01  5.6765119339564E-02
132  1.3100000000000E+00 -1.7732300454148E-01  4.8037718693160E-02
133  1.3200000000000E+00 -1.4521864595167E-01  3.9584369961788E-02
134  1.3300000000000E+00 -1.1540137393076E-01  3.1605363169860E-02
135  1.3400000000000E+00 -8.8335913687913E-02  2.4279668706404E-02
136  1.3500000000000E+00 -6.4421068003030E-02  1.7758777138812E-02
137  1.3600000000000E+00 -4.3999870812691E-02  1.2169750746458E-02
138  1.3700000000000E+00 -2.7324238924502E-02  7.6041128230211E-03
139  1.3800000000000E+00 -1.4506411217019E-02  4.1021307692594E-03
140  1.3900000000000E+00 -5.9691159302775E-03  1.7894169457689E-03
141  1.4000000000000E+00 -1.7572038232434E-03  6.6983734341437E-04
142  1.4100000000000E+00 -2.8915299694462E-04  2.2220680841561E-04
143  1.4200000000000E+00  7.9004139959713E-07  2.7454542850079E-05
144  1.4300000000000E+00 -1.5917363376318E-05 -1.5204155949850E-05
145  1.4400000000000E+00 -1.7040721465924E-08  6.5188374023691E-08
146  1.4500000000000E+00  1.3101248801519E-07  4.0148074307778E-06
147  1.4600000000000E+00  1.0401630574948E-06 -5.5768206050333E-07
148  1.4700000000000E+00  1.3773168995786E-06 -7.3844665121351E-07
149  1.4800000000000E+00  0.0000000000000E+00  0.0000000000000E+00
150  1.4900000000000E+00  0.0000000000000E+00  0.0000000000000E+00
151  1.5000000000000E+00  0.0000000000000E+00  0.0000000000000E+00
152  1.5100000000000E+00  0.0000000000000E+00  0.0000000000000E+00
153  1.5200000000000E+00  0.0000000000000E+00  0.0000000000000E+00
154  1.5300000000000E+00  0.0000000000000E+00  0.0000000000000E+00
155  1.5400000000000E+00  0.0000000000000E+00  0.0000000000000E+00
156  1.5500000000000E+00  0.0000000000000E+00  0.0000000000000E+00
157  1.5600000000000E+00  0.0000000000000E+00  0.0000000000000E+00
158  1.5700000000000E+00  0.0000000000000E+00  0.0000000000000E+00
159  1.5800000000000E+00  0.0000000000000E+00  0.0000000000000E+00
160  1.5900000000000E+00  0.0000000000000E+00  0.0000000000000E+00
161  1.6000000000000E+00  0.0000000000000E+00  0.0000000000000E+00
162  1.6100000000000E+00  0.0000000000000E+00  0.0000000000000E+00
163  1.6200000000000E+00  0.0000000000000E+00  0.0000000000000E+00
164  1.6300000000000E+00  0.0000000000000E+00  0.0000000000000E+00
165  1.6400000000000E+00  0.0000000000000E+00  0.0000000000000E+00
166  1.6500000000000E+00  0.0000000000000E+00  0.0000000000000E+00
167  1.6600000000000E+00  0.0000000000000E+00  0.0000000000000E+00
168  1.6700000000000E+00  0.0000000000000E+00  0.0000000000000E+00
169  1.6800000000000E+00  0.0000000000000E+00  0.0000000000000E+00
170  1.6900000000000E+00  0.0000000000000E+00  0.0000000000000E+00
171  1.7000000000000E+00  0.0000000000000E+00  0.0000000000000E+00
172  1.7100000000000E+00  0.0000000000000E+00  0.0000000000000E+00
173  1.7200000000000E+00  0.0000000000000E+00  0.0000000000000E+00
174  1.7300000000000E+00  0.0000000000000E+00  0.0000000000000E+00
175  1.7400000000000E+00  0.0000000000000E+00  0.0000000000000E+00
176  1.7500000000000E+00  0.0000000000000E+00  0.0000000000000E+00
177  1.7600000000000E+00  0.0000000000000E+00  0.0000000000000E+00
178  1.7700000000000E+00  0.0000000000000E+00  0.0000000000000E+00
179  1.7800000000000E+00  0.0000000000000E+00  0.0000000000000E+00
180  1.7900000000000E+00  0.0000000000000E+00  0.0000000000000E+00
181  1.8000000000000E+00  0.0000000000000E+00  0.0000000000000E+00
182  1.8100000000000E+00  0.0000000000000E+00  0.0000000000000E+00
183  1.8200000000000E+00  0.0000000000000E+00  0.0000000000000E+00
184  1.8300000000000E+00  0.0000000000000E+00  0.0000000000000E+00
185  1.8400000000000E+00  0.0000000000000E+00  0.0000000000000E+00
186  1.8500000000000E+00  0.0000000000000E+00  0.0000000000000E+00
187  1.8600000000000E+00  0.0000000000000E+00  0.0000000000000E+00
188  1.8700000000000E+00  0.0000000000000E+00  0.0000000000000E+00
189  1.8800000000000E+00  0.0000000000000E+00  0.0000000000000E+00
190  1.8900000000000E+00  0.0000000000000E+00  0.0000000000000E+00
191  1.9000000000000E+00  0.0000000000000E+00  0.0000000000000E+00
192  1.9100000000000E+00  0.0000000000000E+00  0.0000000000000E+00
193  1.9200000000000E+00  0.0000000000000E+00  0.0000000000000E+00
194  1.9300000000000E+00  0.0000000000000E+00  0.0000000000000E+00
195  1.9400000000000E+00  0.0000000000000E+00  0.0000000000000E+00
196  1.9500000000000E+00  0.0000000000000E+00  0.0000000000000E+00
197  1.9600000000000E+00  0.0000000000000E+00  0.0000000000000E+00
198  1.9700000000000E+00  0.0000000000000E+00  0.0000000000000E+00
199  1.9800000000000E+00  0.0000000000000E+00  0.0000000000000E+00
200  1.9900000000000E+00  0.0000000000000E+00  0.0000000000000E+00
201  2.0000000000000E+00  0.0000000000000E+00  0.0000000000000E+00
202  2.0100000000000E+00  0.0000000000000E+00  0.0000000000000E+00
203  2.0200000000000E+00  0.0000000000000E+00  0.0000000000000E+00
204  2.0300000000000E+00  0.0000000000000E+00  0.0000000000000E+00
205  2.0400000000000E+00  0.0000000000000E+00  0.0000000000000E+00
206  2.0500000000000E+00  0.0000000000000E+00  0.0000000000000E+00
207  2.0600000000000E+00  0.0000000000000E+00  0.0000000000000E+00
208  2.0700000000000E+00  0.0000000000000E+00  0.0000000000000E+00
209  2.0800000000000E+00  0.0000000000000E+00  0.0000000000000E+00
210  2.0900000000000E+00  0.0000000000000E+00  0.0000000000000E+00
211  2.1000000000000E+00  0.0000000000000E+00  0.0000000000000E+00
212  2.1100000000000E+00  0.0000000000000E+00  0.0000000000000E+00
213  2.1200000000000E+00  0.0000000000000E+00  0.0000000000000E+00
214  2.1300000000000E+00  0.0000000000000E+00  0.0000000000000E+00
215  2.1400000000000E+00  0.0000000000000E+00  0.0000000000000E+00
216  2.1500000000000E+00  0.0000000000000E+00  0.0000000000000E+00
217  2.1600000000000E+00  0.0000000000000E+00  0.0000000000000E+00
218  2.1700000000000E+00  0.0000000000000E+00  0.0000000000000E+00
219  2.1800000000000E+00  0.0000000000000E+00  0.0000000000000E+00
220  2.1900000000000E+00  0.0000000000000E+00  0.0000000000000E+00
221  2.2000000000000E+00  0.0000000000000E+00  0.0000000000000E+00
222  2.2100000000000E+00  0.0000000000000E+00  0.0000000000000E+00
223  2.2200000000000E+00  0.0000000000000E+00  0.0000000000000E+00
224  2.2300000000000E+00  0.0000000000000E+00  0.0000000000000E+00
225  2.2400000000000E+00  0.0000000000000E+00  0.0000000000000E+00
226  2.2500000000000E+00  0.0000000000000E+00  0.0000000000000E+00
227  2.2600000000000E+00  0.0000000000000E+00  0.0000000000000E+00
228  2.2700000000000E+00  0.0000000000000E+00  0.0000000000000E+00
229  2.2800000000000E+00  0.0000000000000E+00  0.0000000000000E+00
230  2.2900000000000E+00  0.0000000000000E+00  0.0000000000000E+00
231  2.3000000000000E+00  0.0000000000000E+00  0.0000000000000E+00
232  2.3100000000000E+00  0.0000000000000E+00  0.0000000000000E+00
233  2.3200000000000E+00  0.0000000000000E+00  0.0000000000000E+00
234  2.3300000000000E+00  0.0000000000000E+00  0.0000000000000E+00
235  2.3400000000000E+00  0.0000000000000E+00  0.0000000000000E+00
236  2.3500000000000E+00  0.0000000000000E+00  0.0000000000000E+00
237  2.3600000000000E+00  0.0000000000000E+00  0.0000000000000E+00
238  2.3700000000000E+00  0.0000000000000E+00  0.0000000000000E+00
239  2.3800000000000E+00  0.0000000000000E+00  0.0000000000000E+00
240  2.3900000000000E+00  0.0000000000000E+00  0.0000000000000E+00
241  2.4000000000000E+00  0.0000000000000E+00  0.0000000000000E+00
242  2.4100000000000E+00  0.0000000000000E+00  0.0000000000000E+00
243  2.4200000000000E+00  0.0000000000000E+00  0.0000000000000E+00
244  2.4300000000000E+00  0.0000000000000E+00  0.0000000000000E+00
245  2.4400000000000E+00  0.0000000000000E+00  0.0000000000000E+00
246  2.4500000000000E+00  0.0000000000000E+00  0.0000000000000E+00
247  2.4600000000000E+00  0.0000000000000E+00  0.0000000000000E+00
248  2.4700000000000E+00  0.0000000000000E+00  0.0000000000000E+00
249  2.4800000000000E+00  0.0000000000000E+00  0.0000000000000E+00
250  2.4900000000000E+00  0.0000000000000E+00  0.0000000000000E+00
251  2.5000000000000E+00  0.0000000000000E+00  0.0000000000000E+00
252  2.5100000000000E+00  0.0000000000000E+00  0.0000000000000E+00
253  2.5200000000000E+00  0.0000000000000E+00  0.0000000000000E+00
254  2.5300000000000E+00  0.0000000000000E+00  0.0000000000000E+00
255  2.5400000000000E+00  0.0000000000000E+00  0.0000000000000E+00
256  2.5500000000000E+00  0.0000000000000E+00  0.0000000000000E+00
257  2.5600000000000E+00  0.0000000000000E+00  0.0000000000000E+00
258  2.5700000000000E+00  0.0000000000000E+00  0.0000000000000E+00
259  2.5800000000000E+00  0.0000000000000E+00  0.0000000000000E+00
260  2.5900000000000E+00  0.0000000000000E+00  0.0000000000000E+00
261  2.6000000000000E+00  0.0000000000000E+00  0.0000000000000E+00
262  2.6100000000000E+00  0.0000000000000E+00  0.0000000000000E+00
263  2.6200000000000E+00  0.0000000000000E+00  0.0000000000000E+00
264  2.6300000000000E+00  0.0000000000000E+00  0.0000000000000E+00
265  2.6400000000000E+00  0.0000000000000E+00  0.0000000000000E+00
266  2.6500000000000E+00  0.0000000000000E+00  0.0000000000000E+00
267  2.6600000000000E+00  0.0000000000000E+00  0.0000000000000E+00
268  2.6700000000000E+00  0.0000000000000E+00  0.0000000000000E+00
269  2.6800000000000E+00  0.0000000000000E+00  0.0000000000000E+00
270  2.6900000000000E+00  0.0000000000000E+00  0.0000000000000E+00
271  2.7000000000000E+00  0.0000000000000E+00  0.0000000000000E+00
272  2.7100000000000E+00  0.0000000000000E+00  0.0000000000000E+00
273  2.7200000000000E+00  0.0000000000000E+00  0.0000000000000E+00
274  2.7300000000000E+00  0.0000000000000E+00  0.0000000000000E+00
275  2.7400000000000E+00  0.0000000000000E+00  0.0000000000000E+00
276  2.7500000000000E+00  0.0000000000000E+00  0.0000000000000E+00
277  2.7600000000000E+00  0.0000000000000E+00  0.0000000000000E+00
278  2.7700000000000E+00  0.0000000000000E+00  0.0000000000000E+00
279  2.7800000000000E+00  0.0000000000000E+00  0.0000000000000E+00
280  2.7900000000000E+00  0.0000000000000E+00  0.0000000000000E+00
281  2.8000000000000E+00  0.0000000000000E+00  0.0000000000000E+00
282  2.8100000000000E+00  0.0000000000000E+00  0.0000000000000E+00
283  2.8200000000000E+00  0.0000000000000E+00  0.0000000000000E+00
284  2.8300000000000E+00  0.0000000000000E+00  0.0000000000000E+00
285  2.8400000000000E+00  0.0000000000000E+00  0.0000000000000E+00
286  2.8500000000000E+00  0.0000000000000E+00  0.0000000000000E+00
287  2.8600000000000E+00  0.0000000000000E+00  0.0000000000000E+00
288  2.8700000000000E+00  0.0000000000000E+00  0.0000000000000E+00
289  2.8800000000000E+00  0.0000000000000E+00  0.0000000000000E+00
290  2.8900000000000E+00  0.0000000000000E+00  0.0000000000000E+00
291  2.9000000000000E+00  0.0000000000000E+00  0.0000000000000E+00
292  2.9100000000000E+00  0.0000000000000E+00  0.0000000000000E+00
293  2.9200000000000E+00  0.0000000000000E+00  0.0000000000000E+00
294  2.9300000000000E+00  0.0000000000000E+00  0.0000000000000E+00
295  2.9400000000000E+00  0.0000000000000E+00  0.0000000000000E+00
296  2.9500000000000E+00  0.0000000000000E+00  0.0000000000000E+00
297  2.9600000000000E+00  0.0000000000000E+00  0.0000000000000E+00
298  2.9700000000000E+00  0.0000000000000E+00  0.0000000000000E+00
299  2.9800000000000E+00  0.0000000000000E+00  0.0000000000000E+00
300  2.9900000000000E+00  0.0000000000000E+00  0.0000000000000E+00
301  3.0000000000000E+00  0.0000000000000E+00  0.0000000000000E+00
302  3.0100000000000E+00  0.0000000000000E+00  0.0000000000000E+00
303  3.0200000000000E+00  0.0000000000000E+00  0.0000000000000E+00
304  3.0300000000000E+00  0.0000000000000E+00  0.0000000000000E+00
305  3.0400000000000E+00  0.0000000000000E+00  0.0000000000000E+00
306  3.0500000000000E+00  0.0000000000000E+00  0.0000000000000E+00
307  3.0600000000000E+00  0.0000000000000E+00  0.0000000000000E+00
308  3.0700000000000E+00  0.0000000000000E+00  0.0000000000000E+00
309  3.0800000000000E+00  0.0000000000000E+00  0.0000000000000E+00
310  3.0900000000000E+00  0.0000000000000E+00  0.0000000000000E+00
311  3.1000000000000E+00  0.0000000000000E+00  0.0000000000000E+00
312  3.1100000000000E+00  0.0000000000000E+00  0.0000000000000E+00
313  3.1200000000000E+00  0.0000000000000E+00  0.0000000000000E+00
314  3.1300000000000E+00  0.0000000000000E+00  0.0000000000000E+00
315  3.1400000000000E+00  0.0000000000000E+00  0.0000000000000E+00
316  3.1500000000000E+00  0.0000000000000E+00  0.0000000000000E+00
317  3.1600000000000E+00  0.0000000000000E+00  0.0000000000000E+00
318  3.1700000000000E+00  0.0000000000000E+00  0.0000000000000E+00
319  3.1800000000000E+00  0.0000000000000E+00  0.0000000000000E+00
320  3.1900000000000E+00  0.0000000000000E+00  0.0000000000000E+00
321  3.2000000000000E+00  0.0000000000000E+00  0.0000000000000E+00
322  3.2100000000000E+00  0.0000000000000E+00  0.0000000000000E+00
323  3.2200000000000E+00  0.0000000000000E+00  0.0000000000000E+00
324  3.2300000000000E+00  0.0000000000000E+00  0.0000000000000E+00
325  3.2400000000000E+00  0.0000000000000E+00  0.0000000000000E+00
326  3.2500000000000E+00  0.0000000000000E+00  0.0000000000000E+00
327  3.2600000000000E+00  0.0000000000000E+00  0.0000000000000E+00
328  3.2700000000000E+00  0.0000000000000E+00  0.0000000000000E+00
329  3.2800000000000E+00  0.0000000000000E+00  0.0000000000000E+00
330  3.2900000000000E+00  0.0000000000000E+00  0.0000000000000E+00
331  3.3000000000000E+00  0.0000000000000E+00  0.0000000000000E+00
332  3.3100000000000E+00  0.0000000000000E+00  0.0000000000000E+00
333  3.3200000000000E+00  0.0000000000000E+00  0.0000000000000E+00
334  3.3300000000000E+00  0.0000000000000E+00  0.0000000000000E+00
335  3.3400000000000E+00  0.0000000000000E+00  0.0000000000000E+00
336  3.3500000000000E+00  0.0000000000000E+00  0.0000000000000E+00
337  3.3600000000000E+00  0.0000000000000E+00  0.0000000000000E+00
338  3.3700000000000E+00  0.0000000000000E+00  0.0000000000000E+00
339  3.3800000000000E+00  0.0000000000000E+00  0.0000000000000E+00
340  3.3900000000000E+00  0.0000000000000E+00  0.0000000000000E+00
341  3.4000000000000E+00  0.0000000000000E+00  0.0000000000000E+00
342  3.4100000000000E+00  0.0000000000000E+00  0.0000000000000E+00
343  3.4200000000000E+00  0.0000000000000E+00  0.0000000000000E+00
344  3.4300000000000E+00  0.0000000000000E+00  0.0000000000000E+00
345  3.4400000000000E+00  0.0000000000000E+00  0.0000000000000E+00
346  3.4500000000000E+00  0.0000000000000E+00  0.0000000000000E+00
347  3.4600000000000E+00  0.0000000000000E+00  0.0000000000000E+00
348  3.4700000000000E+00  0.0000000000000E+00  0.0000000000000E+00
349  3.4800000000000E+00  0.0000000000000E+00  0.0000000000000E+00
350  3.4900000000000E+00  0.0000000000000E+00  0.0000000000000E+00
351  3.5000000000000E+00  0.0000000000000E+00  0.0000000000000E+00
352  3.5100000000000E+00  0.0000000000000E+00  0.0000000000000E+00
353  3.5200000000000E+00  0.0000000000000E+00  0.0000000000000E+00
354  3.5300000000000E+00  0.0000000000000E+00  0.0000000000000E+00
355  3.5400000000000E+00  0.0000000000000E+00  0.0000000000000E+00
356  3.5500000000000E+00  0.0000000000000E+00  0.0000000000000E+00
357  3.5600000000000E+00  0.0000000000000E+00  0.0000000000000E+00
358  3.5700000000000E+00  0.0000000000000E+00  0.0000000000000E+00
359  3.5800000000000E+00  0.0000000000000E+00  0.0000000000000E+00
360  3.5900000000000E+00  0.0000000000000E+00  0.0000000000000E+00
361  3.6000000000000E+00  0.0000000000000E+00  0.0000000000000E+00
362  3.6100000000000E+00  0.0000000000000E+00  0.0000000000000E+00
363  3.6200000000000E+00  0.0000000000000E+00  0.0000000000000E+00
364  3.6300000000000E+00  0.0000000000000E+00  0.0000000000000E+00
365  3.6400000000000E+00  0.0000000000000E+00  0.0000000000000E+00
366  3.6500000000000E+00  0.0000000000000E+00  0.0000000000000E+00
367  3.6600000000000E+00  0.0000000000000E+00  0.0000000000000E+00
368  3.6700000000000E+00  0.0000000000000E+00  0.0000000000000E+00
369  3.6800000000000E+00  0.0000000000000E+00  0.0000000000000E+00
370  3.6900000000000E+00  0.0000000000000E+00  0.0000000000000E+00
371  3.7000000000000E+00  0.0000000000000E+00  0.0000000000000E+00
372  3.7100000000000E+00  0.0000000000000E+00  0.0000000000000E+00
373  3.7200000000000E+00  0.0000000000000E+00  0.0000000000000E+00
374  3.7300000000000E+00  0.0000000000000E+00  0.0000000000000E+00
375  3.7400000000000E+00  0.0000000000000E+00  0.0000000000000E+00
376  3.7500000000000E+00  0.0000000000000E+00  0.0000000000000E+00
377  3.7600000000000E+00  0.0000000000000E+00  0.0000000000000E+00
378  3.7700000000000E+00  0.0000000000000E+00  0.0000000000000E+00
379  3.7800000000000E+00  0.0000000000000E+00  0.0000000000000E+00
380  3.7900000000000E+00  0.0000000000000E+00  0.0000000000000E+00
381  3.8000000000000E+00  0.0000000000000E+00  0.0000000000000E+00
382  3.8100000000000E+00  0.0000000000000E+00  0.0000000000000E+00
383  3.8200000000000E+00  0.0000000000000E+00  0.0000000000000E+00
384  3.8300000000000E+00  0.0000000000000E+00  0.0000000000000E+00
385  3.8400000000000E+00  0.0000000000000E+00  0.0000000000000E+00
386  3.8500000000000E+00  0.0000000000000E+00  0.0000000000000E+00
387  3.8600000000000E+00  0.0000000000000E+00  0.0000000000000E+00
388  3.8700000000000E+00  0.0000000000000E+00  0.0000000000000E+00
389  3.8800000000000E+00  0.0000000000000E+00  0.0000000000000E+00
390  3.8900000000000E+00  0.0000000000000E+00  0.0000000000000E+00
391  3.9000000000000E+00  0.0000000000000E+00  0.0000000000000E+00
392  3.9100000000000E+00  0.0000000000000E+00  0.0000000000000E+00
393  3.9200000000000E+00  0.0000000000000E+00  0.0000000000000E+00
394  3.9300000000000E+00  0.0000000000000E+00  0.0000000000000E+00
395  3.9400000000000E+00  0.0000000000000E+00  0.0000000000000E+00
396  3.9500000000000E+00  0.0000000000000E+00  0.0000000000000E+00
397  3.9600000000000E+00  0.0000000000000E+00  0.0000000000000E+00
398  3.9700000000000E+00  0.0000000000000E+00  0.0000000000000E+00
399  3.9800000000000E+00  0.0000000000000E+00  0.0000000000000E+00
400  3.9900000000000E+00  0.0000000000000E+00  0.0000000000000E+00
401  4.0000000000000E+00  0.0000000000000E+00  0.0000000000000E+00
402  4.0100000000000E+00  0.0000000000000E+00  0.0000000000000E+00
403  4.0200000000000E+00  0.0000000000000E+00  0.0000000000000E+00
404  4.0300000000000E+00  0.0000000000000E+00  0.0000000000000E+00
405  4.0400000000000E+00  0.0000000000000E+00  0.0000000000000E+00
406  4.0500000000000E+00  0.0000000000000E+00  0.0000000000000E+00
407  4.0600000000000E+00  0.0000000000000E+00  0.0000000000000E+00
408  4.0700000000000E+00  0.0000000000000E+00  0.0000000000000E+00
409  4.0800000000000E+00  0.0000000000000E+00  0.0000000000000E+00
410  4.0900000000000E+00  0.0000000000000E+00  0.0000000000000E+00
411  4.1000000000000E+00  0.0000000000000E+00  0.0000000000000E+00
412  4.1100000000000E+00  0.0000000000000E+00  0.0000000000000E+00
413  4.1200000000000E+00  0.0000000000000E+00  0.0000000000000E+00
414  4.1300000000000E+00  0.0000000000000E+00  0.0000000000000E+00
415  4.1400000000000E+00  0.0000000000000E+00  0.0000000000000E+00
416  4.1500000000000E+00  0.0000000000000E+00  0.0000000000000E+00
417  4.1600000000000E+00  0.0000000000000E+00  0.0000000000000E+00
418  4.1700000000000E+00  0.0000000000000E+00  0.0000000000000E+00
419  4.1800000000000E+00  0.0000000000000E+00  0.0000000000000E+00
420  4.1900000000000E+00  0.0000000000000E+00  0.0000000000000E+00
421  4.2000000000000E+00  0.0000000000000E+00  0.0000000000000E+00
422  4.2100000000000E+00  0.0000000000000E+00  0.0000000000000E+00
423  4.2200000000000E+00  0.0000000000000E+00  0.0000000000000E+00
424  4.2300000000000E+00  0.0000000000000E+00  0.0000000000000E+00
425  4.2400000000000E+00  0.0000000000000E+00  0.0000000000000E+00
426  4.2500000000000E+00  0.0000000000000E+00  0.0000000000000E+00
427  4.2600000000000E+00  0.0000000000000E+00  0.0000000000000E+00
428  4.2700000000000E+00  0.0000000000000E+00  0.0000000000000E+00
429  4.2800000000000E+00  0.0000000000000E+00  0.0000000000000E+00
430  4.2900000000000E+00  0.0000000000000E+00  0.0000000000000E+00
431  4.3000000000000E+00  0.0000000000000E+00  0.0000000000000E+00
432  4.3100000000000E+00  0.0000000000000E+00  0.0000000000000E+00
433  4.3200000000000E+00  0.0000000000000E+00  0.0000000000000E+00
434  4.3300000000000E+00  0.0000000000000E+00  0.0000000000000E+00
435  4.3400000000000E+00  0.0000000000000E+00  0.0000000000000E+00
436  4.3500000000000E+00  0.0000000000000E+00  0.0000000000000E+00
437  4.3600000000000E+00  0.0000000000000E+00  0.0000000000000E+00
438  4.3700000000000E+00  0.0000000000000E+00  0.0000000000000E+00
439  4.3800000000000E+00  0.0000000000000E+00  0.0000000000000E+00
440  4.3900000000000E+00  0.0000000000000E+00  0.0000000000000E+00
441  4.4000000000000E+00  0.0000000000000E+00  0.0000000000000E+00
442  4.4100000000000E+00  0.0000000000000E+00  0.0000000000000E+00
443  4.4200000000000E+00  0.0000000000000E+00  0.0000000000000E+00