<PP_INFO>
Generated using APE Version-1.x
Author: Unknown Generation date: 2011/01/21
Pseudopotential for: Li
Exchange-correlation: Perdew-Wang LDA
    0        The Pseudo was generated with a Non-Relativistic Calculation
State   n   l    occ     rc         ev
2s      2   0    1.00    3.31     -0.105601
2p      2   1    0.00    4.15     -0.041402
</PP_INFO>
<PP_HEADER>
   0                   Version Number
  Li                   Element
   NC                  Norm - Conserving pseudopotential
    T                  Nonlinear Core Correction
   SLA  PW  NOGX  NOGC Exchange-Correlation functional
    1.00000000000      Z valence
    0.00000000000      Total energy
  0.0000000  0.0000000 Suggested cutoff for wfc and rho
    0                  Max angular momentum component
  200                  Number of points in mesh
    2    1             Number of Wavefunctions, Number of Projectors
 Wavefunctions         nl  l   occ
                       2s  0  1.00
                       2p  1  0.00
</PP_HEADER>
<PP_MESH>
  <PP_R>
  1.73205076381E-05  1.86684802413E-05  2.01213591311E-05  2.16873086640E-05
  2.33751285897E-05  2.51943035003E-05  2.71550561286E-05  2.92684047938E-05
  3.15462253187E-05  3.40013177647E-05  3.66474783608E-05  3.94995770312E-05
  4.25736409551E-05  4.58869446309E-05  4.94581069488E-05  5.33071958187E-05
  5.74558409401E-05  6.19273553493E-05  6.67468664248E-05  7.19414570896E-05
  7.75403180014E-05  8.35749115878E-05  9.00791488471E-05  9.70895799094E-05
  1.04645599427E-04  1.12789667951E-04  1.21567550533E-04  1.31028573903E-04
  1.41225903655E-04  1.52216843006E-04  1.64063154811E-04  1.76831408635E-04
  1.90593354831E-04  2.05426327746E-04  2.21413680285E-04  2.38645252316E-04
  2.57217875516E-04  2.77235917509E-04  2.98811868353E-04  3.22066972676E-04
  3.47131910991E-04  3.74147534059E-04  4.03265654381E-04  4.34649899303E-04
  4.68476630509E-04  5.04935935071E-04  5.44232693632E-04  5.86587731723E-04
  6.32239060669E-04  6.81443215087E-04  7.34476694458E-04  7.91637516905E-04
  8.53246893876E-04  9.19651035180E-04  9.91223094486E-04  1.06836526623E-03
  1.15151104574E-03  1.24112766520E-03  1.33771871927E-03  1.44182699496E-03
  1.55403752182E-03  1.67498085948E-03  1.80533664099E-03  1.94583739203E-03
  2.09727264725E-03  2.26049338701E-03  2.43641681945E-03  2.62603153463E-03
  2.83040305985E-03  3.05067984736E-03  3.28809972795E-03  3.54399686690E-03
  3.81980926120E-03  4.11708682032E-03  4.43750007578E-03  4.78284956862E-03
  5.15507596742E-03  5.55627097373E-03  5.98868907629E-03  6.45476021995E-03
  6.95710346058E-03  7.49854168272E-03  8.08211746255E-03  8.71111016545E-03
  9.38905437421E-03  1.01197597513E-02  1.09073324473E-02  1.17561981745E-02
  1.26711270777E-02  1.36572605392E-02  1.47201400705E-02  1.58657384527E-02
  1.71004933000E-02  1.84313432352E-02  1.98657668814E-02  2.14118248871E-02
  2.30782052228E-02  2.48742720021E-02  2.68101181033E-02  2.88966218851E-02
  3.11455083173E-02  3.35694148678E-02  3.61819625189E-02  3.89978323087E-02
  4.20328478310E-02  4.53040641540E-02  4.88298636609E-02  5.26300593483E-02
  5.67260061638E-02  6.11407210089E-02  6.58990120809E-02  7.10276182809E-02
  7.65553594713E-02  8.25132984271E-02  8.89349153911E-02  9.58562962141E-02
  1.03316335136E-01  1.11356953352E-01  1.20023334582E-01  1.29364178981E-01
  1.39431976804E-01  1.50283303374E-01  1.61979137000E-01  1.74585201644E-01
  1.88172336251E-01  2.02816892821E-01  2.18601165470E-01  2.35613852871E-01
  2.53950556692E-01  2.73714318825E-01  2.95016200419E-01  3.17975905987E-01
  3.42722456070E-01  3.69394912265E-01  3.98143158672E-01  4.29128744155E-01
  4.62525790155E-01  4.98521969159E-01  5.37319559307E-01  5.79136581083E-01
  6.24208022469E-01  6.72787159439E-01  7.25146979233E-01  7.81581714386E-01
  8.42408496148E-01  9.07969136586E-01  9.78632049371E-01  1.05479432005E+00
  1.13688393747E+00  1.22536219877E+00  1.32072630168E+00  1.42351213845E+00
  1.53429730728E+00  1.65370435807E+00  1.78240429083E+00  1.92112032629E+00
  2.07063197002E+00  2.23177939278E+00  2.40546815183E+00  2.59267427963E+00
  2.79444976859E+00  3.01192848271E+00  3.24633252918E+00  3.49897912600E+00
  3.77128800397E+00  4.06478938477E+00  4.38113257994E+00  4.72209525909E+00
  5.08959343938E+00  5.48569225246E+00  5.91261754935E+00  6.37276840843E+00
  6.86873061694E+00  7.40329120163E+00  7.97945409023E+00  8.60045699190E+00
  9.26978959126E+00  9.99121315846E+00  1.07687816854E+01  1.16068646668E+01
  1.25101716545E+01  1.34837787221E+01  1.45331569900E+01  1.56642033697E+01
  1.68832737015E+01  1.81972184701E+01  1.96134213011E+01  2.11398404523E+01
  2.27850535350E+01  2.45583057149E+01  2.64695616650E+01  2.85295615615E+01
  3.07498814371E+01  3.31429982322E+01  3.57223599077E+01  3.85024610157E+01
  4.14989241499E+01  4.47285877361E+01  4.82096006548E+01  5.19615242271E+01
  </PP_R>
  <PP_RAB>
  1.29809135236E-06  1.39911561884E-06  1.50800212276E-06  1.62536274460E-06
  1.75185698459E-06  1.88819566872E-06  2.03514494319E-06  2.19353057969E-06
  2.36424261582E-06  2.54824035652E-06  2.74655776492E-06  2.96030927252E-06
  3.19069604175E-06  3.43901271578E-06  3.70665469370E-06  3.99512597184E-06
  4.30604759542E-06  4.64116676789E-06  5.00236666922E-06  5.39167703828E-06
  5.81128557889E-06  6.26355025341E-06  6.75101253317E-06  7.27641168015E-06
  7.84270013999E-06  8.45306013314E-06  9.11092153711E-06  9.81998116042E-06
  1.05842235166E-05  1.14079432149E-05  1.22957690935E-05  1.32526902311E-05
  1.42840839825E-05  1.53957461966E-05  1.65939237853E-05  1.78853498283E-05
  1.92772814085E-05  2.07775403931E-05  2.23945573880E-05  2.41374191129E-05
  2.60159194637E-05  2.80406145486E-05  3.02228820073E-05  3.25749849471E-05
  3.51101408544E-05  3.78425958698E-05  4.07877048429E-05  4.39620176184E-05
  4.73833720363E-05  5.10709941710E-05  5.50456063703E-05  5.93295437041E-05
  6.39468794740E-05  6.89235604922E-05  7.42875528875E-05  8.00689992596E-05
  8.63003880629E-05  9.30167361735E-05  1.00255785664E-04  1.08058215893E-04
  1.16467872101E-04  1.25532011791E-04  1.35301570296E-04  1.45831447003E-04
  1.57180813854E-04  1.69413447865E-04  1.82598089510E-04  1.96808829010E-04
  2.12125522671E-04  2.28634241640E-04  2.46427755566E-04  2.65606053922E-04
  2.86276907883E-04  3.08556475942E-04  3.32569956654E-04  3.58452292182E-04
  3.86348926593E-04  4.16416623175E-04  4.48824345354E-04  4.83754206176E-04
  5.21402491677E-04  5.61980763900E-04  6.05717049756E-04  6.52857122403E-04
  7.03665882351E-04  7.58428846058E-04  8.17453750367E-04  8.81072281813E-04
  9.49641940514E-04  1.02354804912E-03  1.10320591811E-03  1.18906317959E-03
  1.28160230274E-03  1.38134330505E-03  1.48884667444E-03  1.60471651899E-03
  1.72960396158E-03  1.86421079894E-03  2.00929344524E-03  2.16566718280E-03
  2.33421074347E-03  2.51587124661E-03  2.71166952137E-03  2.92270584317E-03
  3.15016611662E-03  3.39532853964E-03  3.65957078621E-03  3.94437774812E-03
  4.25134987919E-03  4.58221218896E-03  4.93882393624E-03  5.32318907708E-03
  5.73746752591E-03  6.18398729300E-03  6.66525756656E-03  7.18398281297E-03
  7.74307797437E-03  8.34568484892E-03  8.99518974600E-03  9.69524251530E-03
  1.04497770569E-02  1.12630334277E-02  1.21395816679E-02  1.30843474821E-02
  1.41026399193E-02  1.52001812062E-02  1.63831389033E-02  1.76581605630E-02
  1.90324110849E-02  2.05136129786E-02  2.21100897601E-02  2.38308127246E-02
  2.56854513607E-02  2.76844276873E-02  2.98389748193E-02  3.21612000914E-02
  3.46641530945E-02  3.73618990069E-02  4.02695976330E-02  4.34035885924E-02
  4.67814831393E-02  5.04222631282E-02  5.43463876808E-02  5.85759081547E-02
  6.31345920597E-02  6.80480566177E-02  7.33439127170E-02  7.90519200697E-02
  8.52041544445E-02  9.18351879144E-02  9.89822831324E-02  1.06685602726E-01
  1.14988434989E-01  1.23937437136E-01  1.33582897492E-01  1.43979018081E-01
  1.55184219213E-01  1.67261467773E-01  1.80278631059E-01  1.94308858156E-01
  2.09430990996E-01  2.25730007399E-01  2.43297498609E-01  2.62232183977E-01
  2.82640465711E-01  3.04637026798E-01  3.28345475454E-01  3.53899039733E-01
  3.81441316196E-01  4.11127076837E-01  4.43123138822E-01  4.77609301897E-01
  5.14779358769E-01  5.54842184108E-01  5.98022908303E-01  6.44564182571E-01
  6.94727542516E-01  7.48794877812E-01  8.07070016264E-01  8.69880431147E-01
  9.37579081423E-01  1.01054639517E+00  1.08919240736E+00  1.17395906405E+00
  1.26532270585E+00  1.36379674467E+00  1.46993454886E+00  1.58433255275E+00
  1.70763360836E+00  1.84053059777E+00  1.98377032682E+00  2.13815772166E+00
  2.30456035201E+00  2.48391330642E+00  2.67722444693E+00  2.88558007266E+00
  3.11015102424E+00  3.35219926323E+00  3.61308496367E+00  3.89427415544E+00
  </PP_RAB>
</PP_MESH>
<PP_NLCC>
  4.03490501611E-01  4.03490501567E-01  4.03490501516E-01  4.03490501457E-01
  4.03490501389E-01  4.03490501309E-01  4.03490501217E-01  4.03490501109E-01
  4.03490500985E-01  4.03490500840E-01  4.03490500672E-01  4.03490500476E-01
  4.03490500249E-01  4.03490499985E-01  4.03490499678E-01  4.03490499322E-01
  4.03490498909E-01  4.03490498428E-01  4.03490497870E-01  4.03490497221E-01
  4.03490496467E-01  4.03490495592E-01  4.03490494575E-01  4.03490493394E-01
  4.03490492021E-01  4.03490490427E-01  4.03490488575E-01  4.03490486423E-01
  4.03490483924E-01  4.03490481020E-01  4.03490477646E-01  4.03490473727E-01
  4.03490469175E-01  4.03490463886E-01  4.03490457742E-01  4.03490450605E-01
  4.03490442313E-01  4.03490432680E-01  4.03490421490E-01  4.03490408490E-01
  4.03490393388E-01  4.03490375844E-01  4.03490355463E-01  4.03490331787E-01
  4.03490304281E-01  4.03490272328E-01  4.03490235208E-01  4.03490192085E-01
  4.03490141988E-01  4.03490083791E-01  4.03490016183E-01  4.03489937642E-01
  4.03489846401E-01  4.03489740405E-01  4.03489617269E-01  4.03489474221E-01
  4.03489308042E-01  4.03489114990E-01  4.03488890720E-01  4.03488630184E-01
  4.03488327518E-01  4.03487975909E-01  4.03487567442E-01  4.03487092925E-01
  4.03486541675E-01  4.03485901284E-01  4.03485157340E-01  4.03484293096E-01
  4.03483289100E-01  4.03482122754E-01  4.03480767806E-01  4.03479193759E-01
  4.03477365186E-01  4.03475240930E-01  4.03472773181E-01  4.03469906399E-01
  4.03466576065E-01  4.03462707229E-01  4.03458212824E-01  4.03452991707E-01
  4.03446926388E-01  4.03439880384E-01  4.03431695154E-01  4.03422186535E-01
  4.03411140602E-01  4.03398308864E-01  4.03383402685E-01  4.03366086803E-01
  4.03345971807E-01  4.03322605408E-01  4.03295462295E-01  4.03263932379E-01
  4.03227307130E-01  4.03184763745E-01  4.03135346767E-01  4.03077946774E-01
  4.03011275674E-01  4.02933838066E-01  4.02843898058E-01  4.02739440844E-01
  4.02618128225E-01  4.02477247157E-01  4.02313650271E-01  4.02123687171E-01
  4.01903125151E-01  4.01647057814E-01  4.01349799874E-01  4.01004766242E-01
  4.00604333306E-01  4.00139680124E-01  3.99600607079E-01  3.98975329434E-01
  3.98250243157E-01  3.97409660465E-01  3.96435512716E-01  3.95307018801E-01
  3.94000317915E-01  3.92488066929E-01  3.90739004433E-01  3.88717486347E-01
  3.86383001857E-01  3.83689683859E-01  3.80585835302E-01  3.77013502443E-01
  3.72908138418E-01  3.68198416261E-01  3.62806269868E-01  3.56647264574E-01
  3.49631425539E-01  3.41664680730E-01  3.32651103334E-01  3.22496161129E-01
  3.11111190090E-01  2.98419295007E-01  2.84362825389E-01  2.68912460623E-01
  2.52077741615E-01  2.33918586122E-01  2.14556910663E-01  1.94186965622E-01
  1.73082426322E-01  1.51597788153E-01  1.30161381899E-01  1.09257618256E-01
  8.93971677832E-02  7.10758661549E-02  5.47261136397E-02  4.06678622183E-02
  2.90688688279E-02  1.99243205920E-02  1.30630438356E-02  8.18123632179E-03
  4.89670000388E-03  2.81594610103E-03  1.55992854108E-03  8.30289889986E-04
  4.23406815092E-04  2.06210256049E-04  9.55805059097E-05  4.20026803672E-05
  1.74274306949E-05  6.79663428326E-06  2.47947519870E-06  8.41725269248E-07
  2.64416341002E-07  7.63995336773E-08  2.01718221523E-08  4.83286477363E-09
  1.04274291610E-09  2.00964983316E-10  3.42937439785E-11  5.13273139811E-12
  6.66962497601E-13  7.44246854358E-14  7.04838477080E-15  5.59427992212E-16
  3.67104079340E-17  1.96299885526E-18  8.42797782518E-20  0.00000000000E+00
  0.00000000000E+00  0.00000000000E+00  0.00000000000E+00  0.00000000000E+00
  0.00000000000E+00  0.00000000000E+00  0.00000000000E+00  0.00000000000E+00
  0.00000000000E+00  0.00000000000E+00  0.00000000000E+00  0.00000000000E+00
  0.00000000000E+00  0.00000000000E+00  0.00000000000E+00  0.00000000000E+00
  0.00000000000E+00  0.00000000000E+00  0.00000000000E+00  0.00000000000E+00
</PP_NLCC>
<PP_LOCAL>
 -6.02397999452E-01 -6.02397999508E-01 -6.02397999572E-01 -6.02397999646E-01
 -6.02397999732E-01 -6.02397999831E-01 -6.02397999946E-01 -6.02398000079E-01
 -6.02398000234E-01 -6.02398000413E-01 -6.02398000620E-01 -6.02398000861E-01
 -6.02398001141E-01 -6.02398001466E-01 -6.02398001843E-01 -6.02398002281E-01
 -6.02398002790E-01 -6.02398003380E-01 -6.02398004066E-01 -6.02398004863E-01
 -6.02398005789E-01 -6.02398006864E-01 -6.02398008113E-01 -6.02398009564E-01
 -6.02398011249E-01 -6.02398013206E-01 -6.02398015481E-01 -6.02398018122E-01
 -6.02398021191E-01 -6.02398024756E-01 -6.02398028898E-01 -6.02398033709E-01
 -6.02398039298E-01 -6.02398045791E-01 -6.02398053334E-01 -6.02398062097E-01
 -6.02398072276E-01 -6.02398084102E-01 -6.02398097839E-01 -6.02398113799E-01
 -6.02398132339E-01 -6.02398153877E-01 -6.02398178897E-01 -6.02398207964E-01
 -6.02398241731E-01 -6.02398280959E-01 -6.02398326529E-01 -6.02398379469E-01
 -6.02398440970E-01 -6.02398512416E-01 -6.02398595415E-01 -6.02398691835E-01
 -6.02398803847E-01 -6.02398933973E-01 -6.02399085141E-01 -6.02399260753E-01
 -6.02399464764E-01 -6.02399701764E-01 -6.02399977089E-01 -6.02400296936E-01
 -6.02400668504E-01 -6.02401100158E-01 -6.02401601613E-01 -6.02402184156E-01
 -6.02402860900E-01 -6.02403647078E-01 -6.02404560387E-01 -6.02405621383E-01
 -6.02406853948E-01 -6.02408285827E-01 -6.02409949248E-01 -6.02411881653E-01
 -6.02414126538E-01 -6.02416734431E-01 -6.02419764032E-01 -6.02423283531E-01
 -6.02427372144E-01 -6.02432121897E-01 -6.02437639693E-01 -6.02444049722E-01
 -6.02451496253E-01 -6.02460146879E-01 -6.02470196288E-01 -6.02481870646E-01
 -6.02495432676E-01 -6.02511187575E-01 -6.02529489874E-01 -6.02550751407E-01
 -6.02575450569E-01 -6.02604143072E-01 -6.02637474424E-01 -6.02676194435E-01
 -6.02721174048E-01 -6.02773424890E-01 -6.02834121969E-01 -6.02904630017E-01
 -6.02986534075E-01 -6.03081674986E-01 -6.03192190579E-01 -6.03320563456E-01
 -6.03469676416E-01 -6.03642876732E-01 -6.03844050669E-01 -6.04077709843E-01
 -6.04349091268E-01 -6.04664273205E-01 -6.05030309241E-01 -6.05455383359E-01
 -6.05948989173E-01 -6.06522136906E-01 -6.07187592154E-01 -6.07960151032E-01
 -6.08856956765E-01 -6.09897863410E-01 -6.11105852908E-01 -6.12507512204E-01
 -6.14133577618E-01 -6.16019553950E-01 -6.18206415853E-01 -6.20741398725E-01
 -6.23678885479E-01 -6.27081393933E-01 -6.31020666747E-01 -6.35578861526E-01
 -6.40849832194E-01 -6.46940483399E-01 -6.53972166515E-01 -6.62082067575E-01
 -6.71424512783E-01 -6.82172084344E-01 -6.94516396194E-01 -7.08668323745E-01
 -7.24857411684E-01 -7.43330097549E-01 -7.64346285278E-01 -7.88173683257E-01
 -8.15079189605E-01 -8.45316472581E-01 -8.79108771908E-01 -9.16625862881E-01
 -9.57954115586E-01 -1.00305869404E+00 -1.05173722964E+00 -1.10356482272E+00
 -1.15783100712E+00 -1.21347034397E+00 -1.26898953278E+00 -1.32239533609E+00
 -1.37112971963E+00 -1.41202387039E+00 -1.44129887073E+00 -1.45468417115E+00
 -1.44780626916E+00 -1.41691022978E+00 -1.36069897792E+00 -1.28066725529E+00
 -1.18061305595E+00 -1.06625591420E+00 -9.44907578021E-01 -8.25288310543E-01
 -7.17077754375E-01 -6.29670237599E-01 -5.69644174027E-01 -5.36551226725E-01
 -5.17929014306E-01 -4.91798776018E-01 -4.56501365916E-01 -4.23539117386E-01
 -3.92956940392E-01 -3.64582989707E-01 -3.38257835531E-01 -3.13833563213E-01
 -2.91172930506E-01 -2.70148600200E-01 -2.50642413585E-01 -2.32544735492E-01
 -2.15753840833E-01 -2.00175346722E-01 -1.85721683964E-01 -1.72311630874E-01
 -1.59869819115E-01 -1.48326342982E-01 -1.37616345075E-01 -1.27679656998E-01
 -1.18460442105E-01 -1.09906909679E-01 -1.01971001301E-01 -9.46081022385E-02
 -8.77767916192E-02 -8.14388250884E-02 -7.55585073290E-02 -7.01027446478E-02
 -6.50409196911E-02 -6.03445878690E-02 -5.59873584564E-02 -5.19447462916E-02
 -4.81940341836E-02 -4.47141452545E-02 -4.14855244992E-02 -3.84900288976E-02
</PP_LOCAL>
<PP_NONLOCAL>
  <PP_BETA>
    1    0             Beta    L
   200
  2.86282332186E-05  3.08562322394E-05  3.32576258109E-05  3.58459084050E-05
  3.86356247042E-05  4.16424513342E-05  4.48832849579E-05  4.83763372248E-05
  5.21412371106E-05  5.61991412205E-05  6.05728526777E-05  6.52869492635E-05
  7.03679215313E-05  7.58443216677E-05  8.17469239403E-05  8.81088976312E-05
  9.49659934298E-05  1.02356744331E-04  1.10322682171E-04  1.18908571008E-04
  1.28162658676E-04  1.38136947907E-04  1.48887488558E-04  1.60474692582E-04
  1.72963673503E-04  1.86424612322E-04  2.00933151895E-04  2.16570821999E-04
  2.33425497486E-04  2.51591892091E-04  2.71172090667E-04  2.92276122847E-04
  3.15022581346E-04  3.39539288386E-04  3.65964013986E-04  3.94445250151E-04
  4.25143045314E-04  4.58229903718E-04  4.93891754792E-04  5.32328997973E-04
  5.73757628836E-04  6.18410452871E-04  6.66538393718E-04  7.18411903221E-04
  7.74322481217E-04  8.34584313604E-04  8.99536037893E-04  9.69542646168E-04
  1.04499753614E-03  1.12632472185E-03  1.21398121635E-03  1.30845959995E-03
  1.41029078819E-03  1.52004701538E-03  1.63834505019E-03  1.76584966167E-03
  1.90327735485E-03  2.05140039723E-03  2.21105115850E-03  2.38312678816E-03
  2.56859425710E-03  2.76849579156E-03  2.98395473012E-03  3.21618183644E-03
  3.46648210344E-03  3.73626208699E-03  4.02703781048E-03  4.34044328466E-03
  4.67823969069E-03  5.04232527794E-03  5.43474603237E-03  5.85770717537E-03
  6.31358555787E-03  6.80494301933E-03  7.33454078699E-03  7.90535499621E-03
  8.52059341960E-03  9.18371349895E-03  9.89844178169E-03  1.06687948716E-02
  1.14991020117E-02  1.23940294271E-02  1.33586065656E-02  1.43982543833E-02
  1.55188158370E-02  1.67265887548E-02  1.80283612729E-02  1.94314500378E-02
  2.09437413948E-02  2.25737357943E-02  2.43305956728E-02  2.62241970818E-02
  2.82651853630E-02  3.04650351898E-02  3.28361153259E-02  3.53917584768E-02
  3.81463366462E-02  4.11153424397E-02  4.43154768027E-02  4.77647437173E-02
  5.14825524333E-02  5.54898278599E-02  5.98091298043E-02  6.44647818069E-02
  6.94830103997E-02  7.48920956937E-02  8.07225342964E-02  8.70072156653E-02
  9.37816131241E-02  1.01083990901E-01  1.08955628709E-01  1.17441065552E-01
  1.26588364662E-01  1.36449401661E-01  1.47080178333E-01  1.58541164642E-01
  1.70897671944E-01  1.84220260667E-01  1.98585186044E-01  2.14074885811E-01
  2.30778513990E-01  2.48792525032E-01  2.68221312416E-01  2.89177905312E-01
  3.11784725688E-01  3.36174406006E-01  3.62490663770E-01  3.90889222835E-01
  4.21538761206E-01  4.54621849325E-01  4.90335818675E-01  5.28893464091E-01
  5.70523428738E-01  6.15470040152E-01  6.63992247559E-01  7.16361138751E-01
  7.72855266623E-01  8.33752660755E-01  8.99317897486E-01  9.69781901046E-01
  1.04531118593E+00  1.12596195941E+00  1.21161282872E+00  1.30186779941E+00
  1.39591895526E+00  1.49235614279E+00  1.58891028016E+00  1.68211997171E+00
  1.76692259535E+00  1.83619922800E+00  1.88036092697E+00  1.88716963936E+00
  1.84215501922E+00  1.73020550151E+00  1.53907891375E+00  1.26541261147E+00
  9.22777652863E-01  5.48816440037E-01  2.04785731033E-01 -4.12352225409E-02
 -1.50342613136E-01 -1.51225224260E-01 -1.30084495001E-01 -9.60843328755E-02
 -3.30597190812E-02 -5.88846687770E-04  0.00000000000E+00  0.00000000000E+00
  0.00000000000E+00  0.00000000000E+00  0.00000000000E+00  0.00000000000E+00
  0.00000000000E+00  0.00000000000E+00  0.00000000000E+00  0.00000000000E+00
  0.00000000000E+00  0.00000000000E+00  0.00000000000E+00  0.00000000000E+00
  0.00000000000E+00  0.00000000000E+00  0.00000000000E+00  0.00000000000E+00
  0.00000000000E+00  0.00000000000E+00  0.00000000000E+00  0.00000000000E+00
  0.00000000000E+00  0.00000000000E+00  0.00000000000E+00  0.00000000000E+00
  0.00000000000E+00  0.00000000000E+00  0.00000000000E+00  0.00000000000E+00
  0.00000000000E+00  0.00000000000E+00  0.00000000000E+00  0.00000000000E+00
  </PP_BETA>
  <PP_DIJ>
    1                  Number of nonzero Dij
    1    1  2.96229006744E-01
  </PP_DIJ>
</PP_NONLOCAL>
<PP_PSWFC>
2s    0  1.00          Wavefunction
  2.93537767016E-06  3.16382413156E-06  3.41004949284E-06  3.67543740109E-06
  3.96147918608E-06  4.26978224063E-06  4.60207905332E-06  4.96023694406E-06
  5.34626855735E-06  5.76234317226E-06  6.21079889249E-06  6.69415578523E-06
  7.21513004248E-06  7.77664924454E-06  8.38186881135E-06  9.03418973412E-06
  9.73727768704E-06  1.04950836263E-05  1.13118659920E-05  1.21922146387E-05
  1.31410766271E-05  1.41637840244E-05  1.52660838671E-05  1.64541704560E-05
  1.77347201650E-05  1.91149289585E-05  2.06025528283E-05  2.22059513785E-05
  2.39341348009E-05  2.57968145082E-05  2.78044577057E-05  2.99683462118E-05
  3.23006398550E-05  3.48144448056E-05  3.75238872247E-05  4.04441926456E-05
  4.35917715324E-05  4.69843114978E-05  5.06408766977E-05  5.45820149605E-05
  5.88298732552E-05  6.34083221445E-05  6.83430899241E-05  7.36619072016E-05
  7.93946627274E-05  8.55735713523E-05  9.22333550581E-05  9.94114380759E-05
  1.07148157190E-04  1.15486988408E-04  1.24474791276E-04  1.34162072199E-04
  1.44603268266E-04  1.55857053157E-04  1.67986666856E-04  1.81060271032E-04
  1.95151332075E-04  2.10339033939E-04  2.26708723123E-04  2.44352388278E-04
  2.63369177149E-04  2.83865953740E-04  3.05957898858E-04  3.29769157384E-04
  3.55433535936E-04  3.83095254825E-04  4.12909758544E-04  4.45044589346E-04
  4.79680328820E-04  5.17011612757E-04  5.57248225024E-04  6.00616276595E-04
  6.47359476366E-04  6.97740500918E-04  7.52042470926E-04  8.10570542539E-04
  8.73653622681E-04  9.41646217947E-04  1.01493042751E-03  1.09391809129E-03
  1.17905310547E-03  1.27081391850E-03  1.36971622160E-03  1.47631584910E-03
  1.59121190488E-03  1.71505013282E-03  1.84852655020E-03  1.99239136486E-03
  2.14745319835E-03  2.31458363922E-03  2.49472215242E-03  2.68888137319E-03
  2.89815281563E-03  3.12371302925E-03  3.36683023903E-03  3.62887150794E-03
  3.91131046376E-03  4.21573563618E-03  4.54385945353E-03  4.89752795367E-03
  5.27873126766E-03  5.68961494101E-03  6.13249216301E-03  6.60985698159E-03
  7.12439858910E-03  7.67901677278E-03  8.27683863427E-03  8.92123669336E-03
  9.61584850493E-03  1.03645979331E-02  1.11717182441E-02  1.20417772019E-02
  1.29797043719E-02  1.39908208714E-02  1.50808718378E-02  1.62560619263E-02
  1.75230942019E-02  1.88892128485E-02  2.03622501916E-02  2.19506786218E-02
  2.36636681128E-02  2.55111501641E-02  2.75038891601E-02  2.96535623401E-02
  3.19728498240E-02  3.44755364438E-02  3.71766275123E-02  4.00924811310E-02
  4.32409602176E-02  4.66416081492E-02  5.03158527991E-02  5.42872448142E-02
  5.85817372889E-02  6.32280155476E-02  6.82578875851E-02  7.37067478100E-02
  7.96141290160E-02  8.60243597845E-02  9.29873463900E-02  1.00559498979E-01
  1.08804819918E-01  1.17796165317E-01  1.27616674627E-01  1.38361330956E-01
  1.50138554950E-01  1.63071629936E-01  1.77299578197E-01  1.92976818464E-01
  2.10270480840E-01  2.29353579652E-01  2.50391309538E-01  2.73516588031E-01
  2.98789913054E-01  3.26138452421E-01  3.55271780256E-01  3.85579804663E-01
  4.16035805392E-01  4.45155032276E-01  4.71086957741E-01  4.91914418004E-01
  5.06140143221E-01  5.13127274867E-01  5.13040598369E-01  5.06123341289E-01
  4.92437283080E-01  4.72225159163E-01  4.45985038939E-01  4.14466380837E-01
  3.78649624900E-01  3.39706675280E-01  2.98943616292E-01  2.57725595775E-01
  2.17391285813E-01  1.79163674892E-01  1.44067613952E-01  1.12864820667E-01
  8.60156689123E-02  6.36732394457E-02  4.57097872768E-02  3.17700747316E-02
  2.13417046220E-02  1.38304025767E-02  8.62901114873E-03  5.17190226851E-03
  2.97061054457E-03  1.63070321332E-03  8.52977231978E-04  4.23730635693E-04
  1.99176269211E-04  8.82276882016E-05  3.66601532888E-05  1.42244320216E-05
  5.12732510078E-06  1.70707510288E-06  5.21731239060E-07  1.45403257152E-07
  3.66874882993E-08  8.31607432771E-09  1.67939214708E-09  2.99408541055E-10
2p    1  0.00          Wavefunction
  4.43219024207E-11  5.14890749512E-11  5.98152311731E-11  6.94877871408E-11
  8.07244654417E-11  9.37781959818E-11  1.08942809264E-10  1.26559650312E-10
  1.47025262111E-10  1.70800311515E-10  1.98419958549E-10  2.30505902483E-10
  2.67780375865E-10  3.11082401473E-10  3.61386678142E-10  4.19825520566E-10
  4.87714346923E-10  5.66581288034E-10  6.58201584538E-10  7.64637546335E-10
  8.88284973767E-10  1.03192708544E-09  1.19879716654E-09  1.39265134790E-09
  1.61785315387E-09  1.87947172230E-09  2.18339590730E-09  2.53646683333E-09
  2.94663188415E-09  3.42312359304E-09  3.97666746069E-09  4.61972337885E-09
  5.36676609392E-09  6.23461102352E-09  7.24279275989E-09  8.41400478012E-09
  9.77461026061E-09  1.13552354940E-08  1.31914592656E-08  1.53246137077E-08
  1.78027146564E-08  2.06815424555E-08  2.40258975327E-08  2.79110590120E-08
  3.24244791945E-08  3.76677520480E-08  4.37589000158E-08  5.08350306185E-08
  5.90554226469E-08  6.86051114143E-08  7.96990537680E-08  9.25869666134E-08
  1.07558947859E-07  1.24952006308E-07  1.45157647474E-07  1.68630686080E-07
  1.95899483587E-07  2.27577841205E-07  2.64378816072E-07  3.07130771598E-07
  3.56796023244E-07  4.14492499429E-07  4.81518905125E-07  5.59383954539E-07
  6.49840330858E-07  7.54924137439E-07  8.77000728416E-07  1.01881795028E-06
  1.18356799278E-06  1.37495924124E-06  1.59729974752E-06  1.85559419824E-06
  2.15565656277E-06  2.50424095610E-06  2.90919366184E-06  3.37962973664E-06
  3.92613817014E-06  4.56102021754E-06  5.29856626752E-06  6.15537747564E-06
  7.15073939969E-06  8.30705604339E-06  9.65035407276E-06  1.12108685475E-05
  1.30237233412E-05  1.51297215537E-05  1.75762636874E-05  2.04184142317E-05
  2.37201406293E-05  2.75557524685E-05  3.20115732350E-05  3.71878821718E-05
  4.32011698468E-05  5.01867580487E-05  5.83018427834E-05  6.77290285934E-05
  7.86804333888E-05  9.14024556916E-05  1.06181310932E-04  1.23349460512E-04
  1.43293077136E-04  1.66460712802E-04  1.93373362349E-04  2.24636146092E-04
  2.60951870478E-04  3.03136766565E-04  3.52138753222E-04  4.09058626249E-04
  4.75174636986E-04  5.51970995612E-04  6.41170916391E-04  7.44774915853E-04
  8.65105181688E-04  1.00485695134E-03  1.16715797625E-03  1.35563730162E-03
  1.57450476343E-03  1.82864279484E-03  2.12371234226E-03  2.46627491687E-03
  2.86393304599E-03  3.32549163537E-03  3.86114299934E-03  4.48267854575E-03
  5.20373029637E-03  6.04004555014E-03  7.00979801161E-03  8.13393855003E-03
  9.43658833881E-03  1.09454763346E-02  1.26924217301E-02  1.47138599441E-02
  1.70514076065E-02  1.97524574969E-02  2.28707880072E-02  2.64671628283E-02
  3.06098844483E-02  3.53752487948E-02  4.08478269337E-02  4.71204720658E-02
  5.42939151915E-02  6.24757702060E-02  7.17787193567E-02  8.23175954227E-02
  9.42050236616E-02  1.07545246300E-01  1.22425745756E-01  1.38906343081E-01
  1.57005624492E-01  1.76684907429E-01  1.97830574950E-01  2.20236549796E-01
  2.43589956364E-01  2.67464500881E-01  2.91327404943E-01  3.14566105618E-01
  3.36539246962E-01  3.56651423056E-01  3.74441827907E-01  3.89664022914E-01
  4.02320655443E-01  4.12609958747E-01  4.20752200599E-01  4.26714891140E-01
  4.29974488332E-01  4.29616140587E-01  4.24926654455E-01  4.15644662559E-01
  4.01710147194E-01  3.83243865686E-01  3.60565082514E-01  3.34196477264E-01
  3.04851944280E-01  2.73404850649E-01  2.40837113896E-01  2.08172081640E-01
  1.76402735909E-01  1.46416457916E-01  1.18934652673E-01  9.44713515253E-02
  7.33163671102E-02  5.55430265764E-02  4.10366330383E-02  2.95367784386E-02
  2.06858187390E-02  1.40762410043E-02  9.29170354791E-03  5.93854906264E-03
  3.66694784726E-03  2.18214497922E-03  1.24790328739E-03  6.84030452013E-04
  3.58248461157E-04  1.78614045383E-04  8.44469991392E-05  3.77017918979E-05
  1.58228904237E-05  6.21212650691E-06  2.26950856074E-06  7.67126580794E-07
</PP_PSWFC>
<PP_RHOATOM>
  8.61644206649E-12  1.00097831354E-11  1.16284375436E-11  1.35088400894E-11
  1.56933173417E-11  1.82310403824E-11  2.11791316130E-11  2.46039505412E-11
  2.85825874874E-11  3.32045988349E-11  3.85740228830E-11  4.48117216769E-11
  5.20581015299E-11  6.04762734727E-11  7.02557247706E-11  8.16165841520E-11
  9.48145767545E-11  1.10146780322E-10  1.27958312221E-10  1.48650097796E-10
  1.72687894920E-10  2.00612777891E-10  2.33053316636E-10  2.70739725393E-10
  3.14520299330E-10  3.65380509087E-10  4.24465183044E-10  4.93104276623E-10
  5.72842808670E-10  6.65475638770E-10  7.73087868309E-10  8.98101774670E-10
  1.04333133504E-09  1.21204556712E-09  1.40804211245E-09  1.63573271875E-09
  1.90024254533E-09  2.20752552693E-09  2.56449839271E-09  2.97919635715E-09
  3.46095398722E-09  4.02061531718E-09  4.67077794037E-09  5.42607657258E-09
  6.30351246959E-09  7.32283611399E-09  8.50699178528E-09  9.88263402032E-09
  1.14807275892E-08  1.33372444916E-08  1.54939736631E-08  1.79994616167E-08
  2.09101051933E-08  2.42914210187E-08  2.82195202412E-08  3.27828217462E-08
  3.80840424106E-08  4.42425091984E-08  5.13968451400E-08  5.97080896573E-08
  6.93633234719E-08  8.05798796928E-08  9.36102358735E-08  1.08747697162E-07
  1.26332998468E-07  1.46761974269E-07  1.70494468701E-07  1.98064686507E-07
  2.30093217857E-07  2.67301007726E-07  3.10525584293E-07  3.60739911711E-07
  4.19074291641E-07  4.86841806621E-07  5.65567878077E-07  6.57024604433E-07
  7.63270652424E-07  8.86697599774E-07  1.03008377269E-06  1.19665679045E-06
  1.39016622552E-06  1.61496801545E-06  1.87612252772E-06  2.17950848630E-06